<LesHouchesEvents version="3.0">
<header>
<!--
#*********************************************************************
#                                                                    *
#                        MadGraph5_aMC@NLO                           *
#                                                                    *
#                           Going Beyond                             *
#                                                                    *
#                   http://madgraph.hep.uiuc.edu                     *
#                   http://madgraph.phys.ucl.ac.be                   *
#                   http://amcatnlo.cern.ch                          *
#                                                                    *
#                     The MadGraph5_aMC@NLO team                     *
#                                                                    *
#....................................................................*
#                                                                    *
# This file contains all the information necessary to reproduce      *
# the events generated:                                              *
#                                                                    *
# 1. software version                                                *
# 2. proc_card          : code generation info including model       *
# 3. param_card         : model primary parameters in the LH format  *
# 4. run_card           : running parameters (collider and cuts)     *
# 5. pythia_card        : present only if pythia has been run        *
# 6. pgs_card           : present only if pgs has been run           *
# 7. delphes_cards      : present only if delphes has been run       *
#                                                                    *
#                                                                    *
#*********************************************************************
-->
<MGVersion>
#2.6.5
</MGVersion>
<MG5ProcCard>
<![CDATA[
#************************************************************
#*                     MadGraph5_aMC@NLO                    *
#*                                                          *
#*                *                       *                 *
#*                  *        * *        *                   *
#*                    * * * * 5 * * * *                     *
#*                  *        * *        *                   *
#*                *                       *                 *
#*                                                          *
#*                                                          *
#*         VERSION 2.6.5                 2018-02-03         *
#*                                                          *
#*    The MadGraph5_aMC@NLO Development Team - Find us at   *
#*    https://server06.fynu.ucl.ac.be/projects/madgraph     *
#*                                                          *
#************************************************************
#*                                                          *
#*               Command File for MadGraph5_aMC@NLO         *
#*                                                          *
#*     run as ./bin/mg5_aMC  filename                       *
#*                                                          *
#************************************************************
set default_unset_couplings 99
set group_subprocesses Auto
set ignore_six_quark_processes False
set loop_optimized_output True
set loop_color_flows False
set gauge unitary
set complex_mass_scheme False
set max_npoint_for_channel 0
import model NMSSMHET_UFO --modelname
define p = g u c d s u~ c~ d~ s~
define j = g u c d s u~ c~ d~ s~
define l+ = e+ mu+
define l- = e- mu-
define vl = ve vm vt
define vl~ = ve~ vm~ vt~
generate g g > h03 , (h03 > h02 h01, h02 > a a, h01 > tau+ tau-)
output NMSSM_XYH_Y_gg_H_tautau_MX_1000_MY_100 -nojpeg
]]>
</MG5ProcCard>
<MGProcCard>
#*********************************************************************
#                        MadGraph/MadEvent                           *
#                   http://madgraph.hep.uiuc.edu                     *
#                                                                    *
#                          proc_card.dat                             *
#*********************************************************************
#                                                                    *
#            This Files is generated by MADGRAPH 5                   *
#                                                                    *
# WARNING: This Files is generated for MADEVENT (compatibility issue)*
#          This files is NOT a valid MG4 proc_card.dat               *
#          Running this in MG4 will NEVER reproduce the result of MG5*
#                                                                    *
#*********************************************************************
#*********************************************************************
# Process(es) requested : mg2 input                                  *
#*********************************************************************
# Begin PROCESS # This is TAG. Do not modify this line
g g > h03 , (h03 > h02 h01 , h02 > a a , h01 > tau+ tau-)           #Process
# Be carefull the coupling are here in MG5 convention
          
end_coup           # End the couplings input

done               # this tells MG there are no more procs
# End PROCESS  # This is TAG. Do not modify this line
#*********************************************************************
# Model information                                                  *
#*********************************************************************
# Begin MODEL  # This is TAG. Do not modify this line
NMSSMHET_UFO
# End   MODEL  # This is TAG. Do not modify this line
#*********************************************************************
# Start multiparticle definitions                                    *
#*********************************************************************
# Begin MULTIPARTICLES # This is TAG. Do not modify this line

# End  MULTIPARTICLES # This is TAG. Do not modify this line
</MGProcCard>
<MGRunCard>
<![CDATA[
#*********************************************************************
#                       MadGraph5_aMC@NLO                            *
#                                                                    *
#                     run_card.dat MadEvent                          *
#                                                                    *
#  This file is used to set the parameters of the run.               *
#                                                                    *
#  Some notation/conventions:                                        *
#                                                                    *
#   Lines starting with a '# ' are info or comments                  *
#                                                                    *
#   mind the format:   value    = variable     ! comment             *
#                                                                    *
#   To display more options, you can type the command:               *
#      update full_run_card                                          *
#*********************************************************************
#
#*******************                                                 
# Running parameters
#*******************                                                 
#                                                                    
#*********************************************************************
# Tag name for the run (one word)                                    *
#*********************************************************************
  tag_1	= run_tag ! name of the run 
#*********************************************************************
# Number of events and rnd seed                                      *
# Warning: Do not generate more than 1M events in a single run       *
# If you want to run Pythia, avoid more than 50k events in a run.    *
#*********************************************************************
  3000	= nevents ! Number of unweighted events requested 
 2345670 = iseed ! rnd seed (0=assigned automatically=default))
#*********************************************************************
# Collider type and energy                                           *
# lpp: 0=No PDF, 1=proton, -1=antiproton, 2=photon from proton,      *
#                                         3=photon from electron     *
#*********************************************************************
  1	= lpp1 ! beam 1 type 
  1	= lpp2 ! beam 2 type
  6500.0	= ebeam1 ! beam 1 total energy in GeV
  6500.0	= ebeam2 ! beam 2 total energy in GeV
#*********************************************************************
# Beam polarization from -100 (left-handed) to 100 (right-handed)    *
#*********************************************************************
     0.0     = polbeam1 ! beam polarization for beam 1
     0.0     = polbeam2 ! beam polarization for beam 2

#*********************************************************************
# PDF CHOICE: this automatically fixes also alpha_s and its evol.    *
#*********************************************************************
  lhapdf	= pdlabel ! PDF set                                     
  325500	= lhaid ! if pdlabel=lhapdf, this is the lhapdf number
# To see heavy ion options: type "update ion_pdf"
#*********************************************************************
# Renormalization and factorization scales                           *
#*********************************************************************
  False	= fixed_ren_scale ! if .true. use fixed ren scale
  False	= fixed_fac_scale ! if .true. use fixed fac scale
  91.188	= scale ! fixed ren scale
  91.188	= dsqrt_q2fact1 ! fixed fact scale for pdf1
  91.188	= dsqrt_q2fact2 ! fixed fact scale for pdf2
  -1	= dynamical_scale_choice ! Choose one of the preselected dynamical choices
  1.0	= scalefact ! scale factor for event-by-event scales
#*********************************************************************
# Type and output format
#*********************************************************************
  True	= gridpack !True = setting up the grid pack
  -1.0	= time_of_flight ! threshold (in mm) below which the invariant livetime is not written (-1 means not written)
  3.0	= lhe_version ! Change the way clustering information pass to shower.        
  True	= clusinfo ! include clustering tag in output
  average	= event_norm ! average/sum. Normalization of the weight in the LHEF

#*********************************************************************
# Matching parameter (MLM only)
#*********************************************************************
  0	= ickkw ! 0 no matching, 1 MLM
  1.0	= alpsfact ! scale factor for QCD emission vx
  False	= chcluster ! cluster only according to channel diag
  4	= asrwgtflavor ! highest quark flavor for a_s reweight
  False	= auto_ptj_mjj ! Automatic setting of ptj and mjj if xqcut >0
                                   ! (turn off for VBF and single top processes) 
  0.0	= xqcut ! minimum kt jet measure between partons
#*********************************************************************
#
#*********************************************************************
# handling of the helicities:
#  0: sum over all helicities
#  1: importance sampling over helicities
#*********************************************************************
  0	= nhel ! using helicities importance sampling or not.
#*********************************************************************
# Generation bias, check the wiki page below for more information:   *
#  'cp3.irmp.ucl.ac.be/projects/madgraph/wiki/LOEventGenerationBias' *
#*********************************************************************
  None	= bias_module ! Bias type of bias, [None, ptj_bias, -custom_folder-]
  {}	= bias_parameters ! Specifies the parameters of the module.
#
#*******************************                                                 
# Parton level cuts definition *
#*******************************                                     
#                                                                    
#
#*********************************************************************
# BW cutoff (M+/-bwcutoff*Gamma) ! Define on/off-shell for "$" and decay  
#*********************************************************************
  15.0	= bwcutoff ! (M+/-bwcutoff*Gamma)
#*********************************************************************
# Apply pt/E/eta/dr/mij/kt_durham cuts on decay products or not
# (note that etmiss/ptll/ptheavy/ht/sorted cuts always apply)
#*********************************************************************
  False	= cut_decays ! Cut decay products 
#*********************************************************************
# Standard Cuts                                                      *
#*********************************************************************
# Minimum and maximum pt's (for max, -1 means no cut)                *
#*********************************************************************
  20.0	= ptj ! minimum pt for the jets 
  0.0	= ptb ! minimum pt for the b 
  10.0	= pta ! minimum pt for the photons 
  10.0	= ptl ! minimum pt for the charged leptons 
  0.0	= misset ! minimum missing Et (sum of neutrino's momenta)
  -1.0	= ptjmax ! maximum pt for the jets
  -1.0	= ptbmax ! maximum pt for the b
  -1.0	= ptamax ! maximum pt for the photons
  -1.0	= ptlmax ! maximum pt for the charged leptons
  -1.0	= missetmax ! maximum missing Et (sum of neutrino's momenta)
  {}	= pt_min_pdg ! pt cut for other particles (use pdg code). Applied on particle and anti-particle
  {}	= pt_max_pdg ! pt cut for other particles (syntax e.g. {6: 100, 25: 50}) 
#*********************************************************************
# Minimum and maximum E's (in the center of mass frame)              *
#*********************************************************************
  0.0	= ej ! minimum E for the jets 
  0.0	= eb ! minimum E for the b 
  0.0	= ea ! minimum E for the photons 
  0.0	= el ! minimum E for the charged leptons 
  -1.0	= ejmax ! maximum E for the jets
  -1.0	= ebmax ! maximum E for the b
  -1.0	= eamax ! maximum E for the photons
  -1.0	= elmax ! maximum E for the charged leptons
  {}	= e_min_pdg ! E cut for other particles (use pdg code). Applied on particle and anti-particle
  {}	= e_max_pdg ! E cut for other particles (syntax e.g. {6: 100, 25: 50}) 
#*********************************************************************
# Maximum and minimum absolute rapidity (for max, -1 means no cut)   *
#*********************************************************************
  5.0	= etaj ! max rap for the jets 
  -1.0	= etab ! max rap for the b
  2.5	= etaa ! max rap for the photons 
  2.5	= etal ! max rap for the charged leptons 
  0.0	= etajmin ! min rap for the jets
  0.0	= etabmin ! min rap for the b
  0.0	= etaamin ! min rap for the photons
  0.0	= etalmin ! main rap for the charged leptons
  {}	= eta_min_pdg ! rap cut for other particles (use pdg code). Applied on particle and anti-particle
  {}	= eta_max_pdg ! rap cut for other particles (syntax e.g. {6: 2.5, 23: 5})
#*********************************************************************
# Minimum and maximum DeltaR distance                                *
#*********************************************************************
  0.4	= drjj ! min distance between jets 
  0.0	= drbb ! min distance between b's 
  0.4	= drll ! min distance between leptons 
  0.4	= draa ! min distance between gammas 
  0.0	= drbj ! min distance between b and jet 
  0.4	= draj ! min distance between gamma and jet 
  0.4	= drjl ! min distance between jet and lepton 
  0.0	= drab ! min distance between gamma and b 
  0.0	= drbl ! min distance between b and lepton 
  0.4	= dral ! min distance between gamma and lepton 
  -1.0	= drjjmax ! max distance between jets
  -1.0	= drbbmax ! max distance between b's
  -1.0	= drllmax ! max distance between leptons
  -1.0	= draamax ! max distance between gammas
  -1.0	= drbjmax ! max distance between b and jet
  -1.0	= drajmax ! max distance between gamma and jet
  -1.0	= drjlmax ! max distance between jet and lepton
  -1.0	= drabmax ! max distance between gamma and b
  -1.0	= drblmax ! max distance between b and lepton
  -1.0	= dralmax ! maxdistance between gamma and lepton
#*********************************************************************
# Minimum and maximum invariant mass for pairs                       *
# WARNING: for four lepton final state mmll cut require to have      *
#          different lepton masses for each flavor!                  *           
#*********************************************************************
  0.0	= mmjj ! min invariant mass of a jet pair 
  0.0	= mmbb ! min invariant mass of a b pair 
  0.0	= mmaa ! min invariant mass of gamma gamma pair
  0.0	= mmll ! min invariant mass of l+l- (same flavour) lepton pair
  -1.0	= mmjjmax ! max invariant mass of a jet pair
  -1.0	= mmbbmax ! max invariant mass of a b pair
  -1.0	= mmaamax ! max invariant mass of gamma gamma pair
  -1.0	= mmllmax ! max invariant mass of l+l- (same flavour) lepton pair
  {}	= mxx_min_pdg ! min invariant mass of a pair of particles X/X~ (e.g. {6:250})
  {'default': False}	= mxx_only_part_antipart ! if True the invariant mass is applied only 
                       ! to pairs of particle/antiparticle and not to pairs of the same pdg codes.  
#*********************************************************************
# Minimum and maximum invariant mass for all letpons                 *
#*********************************************************************
  0.0	= mmnl ! min invariant mass for all letpons (l+- and vl) 
  -1.0	= mmnlmax ! max invariant mass for all letpons (l+- and vl) 
#*********************************************************************
# Minimum and maximum pt for 4-momenta sum of leptons                *
#*********************************************************************
  0.0	= ptllmin ! Minimum pt for 4-momenta sum of leptons(l and vl)
  -1.0	= ptllmax ! Maximum pt for 4-momenta sum of leptons(l and vl)
#*********************************************************************
# Inclusive cuts                                                     *
#*********************************************************************
  0.0	= ptheavy ! minimum pt for at least one heavy final state
  0.0	= xptj ! minimum pt for at least one jet  
  0.0	= xptb ! minimum pt for at least one b 
  0.0	= xpta ! minimum pt for at least one photon 
  0.0	= xptl ! minimum pt for at least one charged lepton 
#*********************************************************************
# Control the pt's of the jets sorted by pt                          *
#*********************************************************************
  0.0	= ptj1min ! minimum pt for the leading jet in pt
  0.0	= ptj2min ! minimum pt for the second jet in pt
  0.0	= ptj3min ! minimum pt for the third jet in pt
  0.0	= ptj4min ! minimum pt for the fourth jet in pt
  -1.0	= ptj1max ! maximum pt for the leading jet in pt 
  -1.0	= ptj2max ! maximum pt for the second jet in pt
  -1.0	= ptj3max ! maximum pt for the third jet in pt
  -1.0	= ptj4max ! maximum pt for the fourth jet in pt
  0	= cutuse ! reject event if fails any (0) / all (1) jet pt cuts
#*********************************************************************
# Control the pt's of leptons sorted by pt                           *
#*********************************************************************
  0.0	= ptl1min ! minimum pt for the leading lepton in pt
  0.0	= ptl2min ! minimum pt for the second lepton in pt
  0.0	= ptl3min ! minimum pt for the third lepton in pt
  0.0	= ptl4min ! minimum pt for the fourth lepton in pt
  -1.0	= ptl1max ! maximum pt for the leading lepton in pt 
  -1.0	= ptl2max ! maximum pt for the second lepton in pt
  -1.0	= ptl3max ! maximum pt for the third lepton in pt
  -1.0	= ptl4max ! maximum pt for the fourth lepton in pt
#*********************************************************************
# Control the Ht(k)=Sum of k leading jets                            *
#*********************************************************************
  0.0	= htjmin ! minimum jet HT=Sum(jet pt)
  -1.0	= htjmax ! maximum jet HT=Sum(jet pt)
  0.0	= ihtmin !inclusive Ht for all partons (including b)
  -1.0	= ihtmax !inclusive Ht for all partons (including b)
  0.0	= ht2min ! minimum Ht for the two leading jets
  0.0	= ht3min ! minimum Ht for the three leading jets
  0.0	= ht4min ! minimum Ht for the four leading jets
  -1.0	= ht2max ! maximum Ht for the two leading jets
  -1.0	= ht3max ! maximum Ht for the three leading jets
  -1.0	= ht4max ! maximum Ht for the four leading jets
#***********************************************************************
# Photon-isolation cuts, according to hep-ph/9801442                   *
# When ptgmin=0, all the other parameters are ignored                  *
# When ptgmin>0, pta and draj are not going to be used                 *
#***********************************************************************
  0.0	= ptgmin ! Min photon transverse momentum
  0.4	= r0gamma ! Radius of isolation code
  1.0	= xn ! n parameter of eq.(3.4) in hep-ph/9801442
  1.0	= epsgamma ! epsilon_gamma parameter of eq.(3.4) in hep-ph/9801442
  True	= isoem ! isolate photons from EM energy (photons and leptons)
#*********************************************************************
# WBF cuts                                                           *
#*********************************************************************
  0.0	= xetamin ! minimum rapidity for two jets in the WBF case  
  0.0	= deltaeta ! minimum rapidity for two jets in the WBF case 
#***********************************************************************
# Turn on either the ktdurham or ptlund cut to activate                *
# CKKW(L) merging with Pythia8 [arXiv:1410.3012, arXiv:1109.4829]      *
#***********************************************************************
  -1.0	= ktdurham 
  0.4	= dparameter 
  -1.0	= ptlund 
  1, 2, 3, 4, 5, 6, 21, 1000001, 1000002, 1000003, 1000004, 1000005, 1000006, 1000021, 2000001, 2000002, 2000003, 2000004, 2000005, 2000006	= pdgs_for_merging_cut ! PDGs for two cuts above   
#*********************************************************************
# maximal pdg code for quark to be considered as a light jet         *
# (otherwise b cuts are applied)                                     *
#*********************************************************************
  4	= maxjetflavor ! Maximum jet pdg code
#*********************************************************************
#
#*********************************************************************
# Store info for systematics studies                                 *
# WARNING: Do not use for interference type of computation           *
#*********************************************************************
  True	= use_syst ! Enable systematics studies
#
  None	= systematics_program ! none, systematics [python], SysCalc [depreceted, C++]
['--mur=0.5,1,2', '--muf=0.5,1,2', '--pdf=errorset'] = systematics_arguments ! see: https://cp3.irmp.ucl.ac.be/projects/madgraph/wiki/Systematics#Systematicspythonmodule
# Syscalc is deprecated but to see the associate options type'update syscalc'
]]>
</MGRunCard>
<slha>
######################################################################
## PARAM_CARD AUTOMATICALY GENERATED BY MG5                       ####
######################################################################
###################################
## INFORMATION FOR DSQMIX
###################################
BLOCK DSQMIX # 
      1 3 9.908905e-01 # rrd1x3
      1 6 1.346704e-01 # rrd1x6
      2 3 -1.346704e-01 # rrd2x3
      2 6 9.908905e-01 # rrd2x6
      3 5 1.000000e+00 # rrd3x5
      4 4 1.000000e+00 # rrd4x4
      5 1 1.000000e+00 # rrd5x1
      6 2 1.000000e+00 # rrd6x2
###################################
## INFORMATION FOR HET
###################################
BLOCK HET # 
      1 1.000000e+00 # gagg
      2 1.000000e+00 # gayy
      3 1.000000e+00 # ghgg
      4 1.000000e+00 # ghyy
###################################
## INFORMATION FOR HMIX
###################################
BLOCK HMIX # 
      2 1.000043e+01 # tb
      4 1.048278e+06 # ma2
###################################
## INFORMATION FOR MASS
###################################
BLOCK MASS # 
      3 2.000000e-01 # ms
      4 1.230000e+00 # mc
      5 4.214000e+00 # mb
      6 1.714000e+02 # mt
      11 5.110000e-04 # me
      13 1.056000e-01 # mm
      15 1.777000e+00 # mta
      23 9.118700e+01 # mz
      24 8.093875e+01 # mw
      25 1.250000e+02 # mh01
      35 1.000000e+02 # mh02
      36 4.039770e+01 # ma01
      37 1.022472e+03 # mh
      45 1.000000e+03 # mh03
      46 1.021042e+03 # ma02
      1000001 8.663652e+02 # msd1
      1000002 4.992293e+02 # msu1
      1000003 9.921381e+02 # msd2
      1000004 9.355274e+02 # msu2
      1000005 1.023754e+03 # msd3
      1000006 1.027259e+03 # msu3
      1000011 2.147396e+02 # msl1
      1000012 3.603406e+02 # msn1
      1000013 2.610244e+02 # msl2
      1000014 3.721212e+02 # msn2
      1000015 2.610244e+02 # msl3
      1000016 3.721212e+02 # msn3
      1000021 1.151543e+03 # mgo
      1000022 2.081416e+02 # mneu1
      1000023 3.978511e+02 # mneu2
      1000024 3.978295e+02 # mch1
      1000025 -9.639805e+02 # mneu3
      1000035 9.695939e+02 # mneu4
      1000037 9.701368e+02 # mch2
      1000045 2.094274e+03 # mneu5
      2000001 1.023754e+03 # msd4
      2000002 1.027259e+03 # msu4
      2000003 1.066519e+03 # msd5
      2000004 1.063635e+03 # msu5
      2000005 1.066519e+03 # msd6
      2000006 1.063635e+03 # msu6
      2000011 3.748574e+02 # msl4
      2000013 3.801759e+02 # msl5
      2000015 3.801759e+02 # msl6
      1 0.000000e+00 # d : 0.0
      2 0.000000e+00 # u : 0.0
      12 0.000000e+00 # ve : 0.0
      14 0.000000e+00 # vm : 0.0
      16 0.000000e+00 # vt : 0.0
      21 0.000000e+00 # g : 0.0
      22 0.000000e+00 # a : 0.0
###################################
## INFORMATION FOR MSD2
###################################
BLOCK MSD2 # 
      1 1 9.635454e+05 # rmd21x1
      2 2 9.635454e+05 # rmd22x2
      3 3 9.334518e+05 # rmd23x3
###################################
## INFORMATION FOR MSE2
###################################
BLOCK MSE2 # 
      1 1 6.631115e+04 # rme21x1
      2 2 6.631115e+04 # rme22x2
      3 3 4.889737e+04 # rme23x3
###################################
## INFORMATION FOR MSL2
###################################
BLOCK MSL2 # 
      1 1 1.424152e+05 # rml21x1
      2 2 1.424152e+05 # rml22x2
      3 3 1.337864e+05 # rml23x3
###################################
## INFORMATION FOR MSOFT
###################################
BLOCK MSOFT # 
      1 2.116187e+02 # rmx1
      2 3.918648e+02 # rmx2
      3 1.112256e+03 # rmx3
      21 8.998853e+04 # mhd2
      22 -9.080711e+05 # mhu2
###################################
## INFORMATION FOR MSQ2
###################################
BLOCK MSQ2 # 
      1 1 1.048784e+06 # rmq21x1
      2 2 1.048784e+06 # rmq22x2
      3 3 7.155793e+05 # rmq23x3
###################################
## INFORMATION FOR MSU2
###################################
BLOCK MSU2 # 
      1 1 9.724283e+05 # rmu21x1
      2 2 9.724283e+05 # rmu22x2
      3 3 3.194849e+05 # rmu23x3
###################################
## INFORMATION FOR NMAMIX
###################################
BLOCK NMAMIX # 
      1 1 5.012589e-02 # up1x1
      1 2 5.012589e-03 # up1x2
      1 3 9.987303e-01 # up1x3
      2 1 9.937738e-01 # up2x1
      2 2 9.937738e-02 # up2x2
      2 3 -5.037590e-02 # up2x3
###################################
## INFORMATION FOR NMHMIX
###################################
BLOCK NMHMIX # 
      1 1 1.012306e-01 # us1x1
      1 2 9.948418e-01 # us1x2
      1 3 -6.490797e-03 # us1x3
      2 1 9.948504e-01 # us2x1
      2 2 -1.011943e-01 # us2x2
      2 3 5.695888e-03 # us2x3
      3 1 -5.009676e-03 # us3x1
      3 2 7.033970e-03 # us3x2
      3 3 9.999627e-01 # us3x3
###################################
## INFORMATION FOR NMNMIX
###################################
BLOCK NMNMIX # 
      1 1 9.986845e-01 # rnn1x1
      1 2 -8.149439e-03 # rnn1x2
      1 3 4.835308e-02 # rnn1x3
      1 4 -1.498717e-02 # rnn1x4
      1 5 4.303890e-04 # rnn1x5
      2 1 1.386218e-02 # rnn2x1
      2 2 9.932687e-01 # rnn2x2
      2 3 -1.031190e-01 # rnn2x3
      2 4 5.089756e-02 # rnn2x4
      2 5 -1.001173e-03 # rnn2x5
      3 1 -2.322789e-02 # rnn3x1
      3 2 3.729521e-02 # rnn3x2
      3 3 7.052977e-01 # rnn3x3
      3 4 7.075347e-01 # rnn3x4
      3 5 4.396280e-03 # rnn3x5
      4 1 4.356062e-02 # rnn4x1
      4 2 -1.093611e-01 # rnn4x2
      4 3 -6.996310e-01 # rnn4x3
      4 4 7.046738e-01 # rnn4x4
      4 5 -9.692680e-03 # rnn4x5
      5 1 1.083973e-04 # rnn5x1
      5 2 -2.260343e-04 # rnn5x2
      5 3 -1.000661e-02 # rnn5x3
      5 4 3.777281e-03 # rnn5x4
      5 5 9.999428e-01 # rnn5x5
###################################
## INFORMATION FOR NMSSMRUN
###################################
BLOCK NMSSMRUN # 
      1 1.000000e-01 # nml
      2 1.089107e-01 # nmk
      3 -9.639075e+02 # nmal
      4 -1.589271e+00 # nmak
      5 9.708679e+02 # mueff
      10 -2.235031e+06 # ms2
      12 1.000000e+00 # bb
###################################
## INFORMATION FOR SELMIX
###################################
BLOCK SELMIX # 
      1 3 2.209803e-01 # rrl1x3
      1 6 9.752783e-01 # rrl1x6
      2 4 1.000000e+00 # rrl2x4
      3 5 1.000000e+00 # rrl3x5
      4 3 -9.752783e-01 # rrl4x3
      4 6 2.209803e-01 # rrl4x6
      5 1 1.000000e+00 # rrl5x1
      6 2 1.000000e+00 # rrl6x2
###################################
## INFORMATION FOR SMINPUTS
###################################
BLOCK SMINPUTS # 
      1 1.279200e+02 # aewm1
      3 1.172000e-01 # as
###################################
## INFORMATION FOR SNUMIX
###################################
BLOCK SNUMIX # 
      1 3 1.000000e+00 # rrn1x3
      2 2 1.000000e+00 # rrn2x2
      3 1 1.000000e+00 # rrn3x1
###################################
## INFORMATION FOR TD
###################################
BLOCK TD # 
      3 3 -3.423100e+02 # rtd3x3
###################################
## INFORMATION FOR TE
###################################
BLOCK TE # 
      3 3 -1.771217e+02 # rte3x3
###################################
## INFORMATION FOR TU
###################################
BLOCK TU # 
      3 3 -1.213649e+03 # rtu3x3
###################################
## INFORMATION FOR UMIX
###################################
BLOCK UMIX # 
      1 1 9.892306e-01 # ruu1x1
      1 2 -1.463656e-01 # ruu1x2
      2 1 1.463656e-01 # ruu2x1
      2 2 9.892306e-01 # ruu2x2
###################################
## INFORMATION FOR UPMNS
###################################
BLOCK UPMNS # 
      1 1 1.000000e+00 # rmns1x1
      2 2 1.000000e+00 # rmns2x2
      3 3 1.000000e+00 # rmns3x3
###################################
## INFORMATION FOR USQMIX
###################################
BLOCK USQMIX # 
      1 3 4.057757e-01 # rru1x3
      1 6 9.139727e-01 # rru1x6
      2 3 -9.139727e-01 # rru2x3
      2 6 4.057757e-01 # rru2x6
      3 5 1.000000e+00 # rru3x5
      4 4 1.000000e+00 # rru4x4
      5 1 1.000000e+00 # rru5x1
      6 2 1.000000e+00 # rru6x2
###################################
## INFORMATION FOR VCKM
###################################
BLOCK VCKM # 
      1 1 1.000000e+00 # rckm1x1
      2 2 1.000000e+00 # rckm2x2
      3 3 1.000000e+00 # rckm3x3
###################################
## INFORMATION FOR VMIX
###################################
BLOCK VMIX # 
      1 1 9.973824e-01 # rvv1x1
      1 2 -7.230758e-02 # rvv1x2
      2 1 7.230758e-02 # rvv2x1
      2 2 9.973824e-01 # rvv2x2
###################################
## INFORMATION FOR YD
###################################
BLOCK YD # 
      2 2 1.154530e-02 # ryd2x2
      3 3 2.432590e-01 # ryd3x3
###################################
## INFORMATION FOR YE
###################################
BLOCK YE # 
      1 1 2.949820e-05 # rye1x1
      2 2 6.095910e-03 # rye2x2
      3 3 1.025800e-01 # rye3x3
###################################
## INFORMATION FOR YU
###################################
BLOCK YU # 
      2 2 7.100040e-03 # ryu2x2
      3 3 9.893880e-01 # ryu3x3
###################################
## INFORMATION FOR DECAY
###################################
DECAY 6 1.334825e+00 # wt
DECAY 25 4.000000e-03 # wh01
DECAY 35 1.000000e-03 # wh02
DECAY 36 2.495587e-04 # wa01
DECAY 37 3.250011e+00 # wh
DECAY 45 1.000000e-03 # wh03
DECAY 46 3.509479e+00 # wa02
DECAY 1000001 2.000000e+00 # wsd1
DECAY 1000002 2.000000e+00 # wsu1
DECAY 1000003 2.000000e+00 # wsd2
DECAY 1000004 2.000000e+00 # wsu2
DECAY 1000005 2.000000e+00 # wsd3
DECAY 1000006 2.000000e+00 # wsu3
DECAY 1000011 2.000000e+00 # wsl1
DECAY 1000012 2.000000e+00 # wsn1
DECAY 1000013 2.000000e+00 # wsl2
DECAY 1000014 2.000000e+00 # wsn2
DECAY 1000015 2.000000e+00 # wsl3
DECAY 1000016 2.000000e+00 # wsn3
DECAY 1000021 2.000000e+00 # wgo
DECAY 1000023 2.000000e+00 # wneu2
DECAY 1000024 2.000000e+00 # wch1
DECAY 1000025 2.000000e+00 # wneu3
DECAY 1000035 2.000000e+00 # wneu4
DECAY 1000037 2.000000e+00 # wch2
DECAY 1000045 2.000000e+00 # wneu5
DECAY 2000001 2.000000e+00 # wsd4
DECAY 2000002 2.000000e+00 # wsu4
DECAY 2000003 2.000000e+00 # wsd5
DECAY 2000004 2.000000e+00 # wsu5
DECAY 2000005 2.000000e+00 # wsd6
DECAY 2000006 2.000000e+00 # wsu6
DECAY 2000011 2.000000e+00 # wsl4
DECAY 2000013 2.000000e+00 # wsl5
DECAY 2000015 2.000000e+00 # wsl6
DECAY 1 0.000000e+00 # d : 0.0
DECAY 2 0.000000e+00 # u : 0.0
DECAY 3 0.000000e+00 # s : 0.0
DECAY 4 0.000000e+00 # c : 0.0
DECAY 5 0.000000e+00 # b : 0.0
DECAY 11 0.000000e+00 # e- : 0.0
DECAY 12 0.000000e+00 # ve : 0.0
DECAY 13 0.000000e+00 # mu- : 0.0
DECAY 14 0.000000e+00 # vm : 0.0
DECAY 15 0.000000e+00 # tau- : 0.0
DECAY 16 0.000000e+00 # vt : 0.0
DECAY 21 0.000000e+00 # g : 0.0
DECAY 22 0.000000e+00 # a : 0.0
DECAY 23 0.000000e+00 # z : 0.0
DECAY 24 0.000000e+00 # w+ : 0.0
DECAY 1000022 0.000000e+00 # n1 : 0.0
###################################
## INFORMATION FOR QNUMBERS 1000022
###################################
BLOCK QNUMBERS 1000022 #  n1
      1 0 # 3 times electric charge
      2 2 # number of spin states (2s+1)
      3 1 # colour rep (1: singlet, 3: triplet, 8: octet)
      4 0 # particle/antiparticle distinction (0=own anti)
###################################
## INFORMATION FOR QNUMBERS 1000023
###################################
BLOCK QNUMBERS 1000023 #  n2
      1 0 # 3 times electric charge
      2 2 # number of spin states (2s+1)
      3 1 # colour rep (1: singlet, 3: triplet, 8: octet)
      4 0 # particle/antiparticle distinction (0=own anti)
###################################
## INFORMATION FOR QNUMBERS 1000025
###################################
BLOCK QNUMBERS 1000025 #  n3
      1 0 # 3 times electric charge
      2 2 # number of spin states (2s+1)
      3 1 # colour rep (1: singlet, 3: triplet, 8: octet)
      4 0 # particle/antiparticle distinction (0=own anti)
###################################
## INFORMATION FOR QNUMBERS 1000035
###################################
BLOCK QNUMBERS 1000035 #  n4
      1 0 # 3 times electric charge
      2 2 # number of spin states (2s+1)
      3 1 # colour rep (1: singlet, 3: triplet, 8: octet)
      4 0 # particle/antiparticle distinction (0=own anti)
###################################
## INFORMATION FOR QNUMBERS 1000045
###################################
BLOCK QNUMBERS 1000045 #  n5
      1 0 # 3 times electric charge
      2 2 # number of spin states (2s+1)
      3 1 # colour rep (1: singlet, 3: triplet, 8: octet)
      4 0 # particle/antiparticle distinction (0=own anti)
###################################
## INFORMATION FOR QNUMBERS 1000024
###################################
BLOCK QNUMBERS 1000024 #  x1+
      1 3 # 3 times electric charge
      2 2 # number of spin states (2s+1)
      3 1 # colour rep (1: singlet, 3: triplet, 8: octet)
      4 1 # particle/antiparticle distinction (0=own anti)
###################################
## INFORMATION FOR QNUMBERS 1000037
###################################
BLOCK QNUMBERS 1000037 #  x2+
      1 3 # 3 times electric charge
      2 2 # number of spin states (2s+1)
      3 1 # colour rep (1: singlet, 3: triplet, 8: octet)
      4 1 # particle/antiparticle distinction (0=own anti)
###################################
## INFORMATION FOR QNUMBERS 1000021
###################################
BLOCK QNUMBERS 1000021 #  go
      1 0 # 3 times electric charge
      2 2 # number of spin states (2s+1)
      3 8 # colour rep (1: singlet, 3: triplet, 8: octet)
      4 0 # particle/antiparticle distinction (0=own anti)
###################################
## INFORMATION FOR QNUMBERS 35
###################################
BLOCK QNUMBERS 35 #  h02
      1 0 # 3 times electric charge
      2 1 # number of spin states (2s+1)
      3 1 # colour rep (1: singlet, 3: triplet, 8: octet)
      4 0 # particle/antiparticle distinction (0=own anti)
###################################
## INFORMATION FOR QNUMBERS 45
###################################
BLOCK QNUMBERS 45 #  h03
      1 0 # 3 times electric charge
      2 1 # number of spin states (2s+1)
      3 1 # colour rep (1: singlet, 3: triplet, 8: octet)
      4 0 # particle/antiparticle distinction (0=own anti)
###################################
## INFORMATION FOR QNUMBERS 36
###################################
BLOCK QNUMBERS 36 #  a01
      1 0 # 3 times electric charge
      2 1 # number of spin states (2s+1)
      3 1 # colour rep (1: singlet, 3: triplet, 8: octet)
      4 0 # particle/antiparticle distinction (0=own anti)
###################################
## INFORMATION FOR QNUMBERS 46
###################################
BLOCK QNUMBERS 46 #  a02
      1 0 # 3 times electric charge
      2 1 # number of spin states (2s+1)
      3 1 # colour rep (1: singlet, 3: triplet, 8: octet)
      4 0 # particle/antiparticle distinction (0=own anti)
###################################
## INFORMATION FOR QNUMBERS 37
###################################
BLOCK QNUMBERS 37 #  h+
      1 3 # 3 times electric charge
      2 1 # number of spin states (2s+1)
      3 1 # colour rep (1: singlet, 3: triplet, 8: octet)
      4 1 # particle/antiparticle distinction (0=own anti)
###################################
## INFORMATION FOR QNUMBERS 1000012
###################################
BLOCK QNUMBERS 1000012 #  sv1
      1 0 # 3 times electric charge
      2 1 # number of spin states (2s+1)
      3 1 # colour rep (1: singlet, 3: triplet, 8: octet)
      4 1 # particle/antiparticle distinction (0=own anti)
###################################
## INFORMATION FOR QNUMBERS 1000014
###################################
BLOCK QNUMBERS 1000014 #  sv2
      1 0 # 3 times electric charge
      2 1 # number of spin states (2s+1)
      3 1 # colour rep (1: singlet, 3: triplet, 8: octet)
      4 1 # particle/antiparticle distinction (0=own anti)
###################################
## INFORMATION FOR QNUMBERS 1000016
###################################
BLOCK QNUMBERS 1000016 #  sv3
      1 0 # 3 times electric charge
      2 1 # number of spin states (2s+1)
      3 1 # colour rep (1: singlet, 3: triplet, 8: octet)
      4 1 # particle/antiparticle distinction (0=own anti)
###################################
## INFORMATION FOR QNUMBERS 1000011
###################################
BLOCK QNUMBERS 1000011 #  sl1-
      1 -3 # 3 times electric charge
      2 1 # number of spin states (2s+1)
      3 1 # colour rep (1: singlet, 3: triplet, 8: octet)
      4 1 # particle/antiparticle distinction (0=own anti)
###################################
## INFORMATION FOR QNUMBERS 1000013
###################################
BLOCK QNUMBERS 1000013 #  sl2-
      1 -3 # 3 times electric charge
      2 1 # number of spin states (2s+1)
      3 1 # colour rep (1: singlet, 3: triplet, 8: octet)
      4 1 # particle/antiparticle distinction (0=own anti)
###################################
## INFORMATION FOR QNUMBERS 1000015
###################################
BLOCK QNUMBERS 1000015 #  sl3-
      1 -3 # 3 times electric charge
      2 1 # number of spin states (2s+1)
      3 1 # colour rep (1: singlet, 3: triplet, 8: octet)
      4 1 # particle/antiparticle distinction (0=own anti)
###################################
## INFORMATION FOR QNUMBERS 2000011
###################################
BLOCK QNUMBERS 2000011 #  sl4-
      1 -3 # 3 times electric charge
      2 1 # number of spin states (2s+1)
      3 1 # colour rep (1: singlet, 3: triplet, 8: octet)
      4 1 # particle/antiparticle distinction (0=own anti)
###################################
## INFORMATION FOR QNUMBERS 2000013
###################################
BLOCK QNUMBERS 2000013 #  sl5-
      1 -3 # 3 times electric charge
      2 1 # number of spin states (2s+1)
      3 1 # colour rep (1: singlet, 3: triplet, 8: octet)
      4 1 # particle/antiparticle distinction (0=own anti)
###################################
## INFORMATION FOR QNUMBERS 2000015
###################################
BLOCK QNUMBERS 2000015 #  sl6-
      1 -3 # 3 times electric charge
      2 1 # number of spin states (2s+1)
      3 1 # colour rep (1: singlet, 3: triplet, 8: octet)
      4 1 # particle/antiparticle distinction (0=own anti)
###################################
## INFORMATION FOR QNUMBERS 1000002
###################################
BLOCK QNUMBERS 1000002 #  su1
      1 2 # 3 times electric charge
      2 1 # number of spin states (2s+1)
      3 3 # colour rep (1: singlet, 3: triplet, 8: octet)
      4 1 # particle/antiparticle distinction (0=own anti)
###################################
## INFORMATION FOR QNUMBERS 1000004
###################################
BLOCK QNUMBERS 1000004 #  su2
      1 2 # 3 times electric charge
      2 1 # number of spin states (2s+1)
      3 3 # colour rep (1: singlet, 3: triplet, 8: octet)
      4 1 # particle/antiparticle distinction (0=own anti)
###################################
## INFORMATION FOR QNUMBERS 1000006
###################################
BLOCK QNUMBERS 1000006 #  su3
      1 2 # 3 times electric charge
      2 1 # number of spin states (2s+1)
      3 3 # colour rep (1: singlet, 3: triplet, 8: octet)
      4 1 # particle/antiparticle distinction (0=own anti)
###################################
## INFORMATION FOR QNUMBERS 2000002
###################################
BLOCK QNUMBERS 2000002 #  su4
      1 2 # 3 times electric charge
      2 1 # number of spin states (2s+1)
      3 3 # colour rep (1: singlet, 3: triplet, 8: octet)
      4 1 # particle/antiparticle distinction (0=own anti)
###################################
## INFORMATION FOR QNUMBERS 2000004
###################################
BLOCK QNUMBERS 2000004 #  su5
      1 2 # 3 times electric charge
      2 1 # number of spin states (2s+1)
      3 3 # colour rep (1: singlet, 3: triplet, 8: octet)
      4 1 # particle/antiparticle distinction (0=own anti)
###################################
## INFORMATION FOR QNUMBERS 2000006
###################################
BLOCK QNUMBERS 2000006 #  su6
      1 2 # 3 times electric charge
      2 1 # number of spin states (2s+1)
      3 3 # colour rep (1: singlet, 3: triplet, 8: octet)
      4 1 # particle/antiparticle distinction (0=own anti)
###################################
## INFORMATION FOR QNUMBERS 1000001
###################################
BLOCK QNUMBERS 1000001 #  sd1
      1 -1 # 3 times electric charge
      2 1 # number of spin states (2s+1)
      3 3 # colour rep (1: singlet, 3: triplet, 8: octet)
      4 1 # particle/antiparticle distinction (0=own anti)
###################################
## INFORMATION FOR QNUMBERS 1000003
###################################
BLOCK QNUMBERS 1000003 #  sd2
      1 -1 # 3 times electric charge
      2 1 # number of spin states (2s+1)
      3 3 # colour rep (1: singlet, 3: triplet, 8: octet)
      4 1 # particle/antiparticle distinction (0=own anti)
###################################
## INFORMATION FOR QNUMBERS 1000005
###################################
BLOCK QNUMBERS 1000005 #  sd3
      1 -1 # 3 times electric charge
      2 1 # number of spin states (2s+1)
      3 3 # colour rep (1: singlet, 3: triplet, 8: octet)
      4 1 # particle/antiparticle distinction (0=own anti)
###################################
## INFORMATION FOR QNUMBERS 2000001
###################################
BLOCK QNUMBERS 2000001 #  sd4
      1 -1 # 3 times electric charge
      2 1 # number of spin states (2s+1)
      3 3 # colour rep (1: singlet, 3: triplet, 8: octet)
      4 1 # particle/antiparticle distinction (0=own anti)
###################################
## INFORMATION FOR QNUMBERS 2000003
###################################
BLOCK QNUMBERS 2000003 #  sd5
      1 -1 # 3 times electric charge
      2 1 # number of spin states (2s+1)
      3 3 # colour rep (1: singlet, 3: triplet, 8: octet)
      4 1 # particle/antiparticle distinction (0=own anti)
###################################
## INFORMATION FOR QNUMBERS 2000005
###################################
BLOCK QNUMBERS 2000005 #  sd6
      1 -1 # 3 times electric charge
      2 1 # number of spin states (2s+1)
      3 3 # colour rep (1: singlet, 3: triplet, 8: octet)
      4 1 # particle/antiparticle distinction (0=own anti)
</slha>
<initrwgt>
<weight id="1001" MUR="1.0" MUF="1.0" PDF="325500" >  </weight>
<weightgroup name="Central scale variation" combine="envelope">
<weight id="1002" MUR="1.0" MUF="1.0" DYN_SCALE="1" PDF="325500" > dyn_scale_choice=sum pt  </weight>
<weight id="1003" MUR="1.0" MUF="1.0" DYN_SCALE="2" PDF="325500" > dyn_scale_choice=HT  </weight>
<weight id="1004" MUR="1.0" MUF="1.0" DYN_SCALE="3" PDF="325500" > dyn_scale_choice=HT/2  </weight>
<weight id="1005" MUR="1.0" MUF="1.0" DYN_SCALE="4" PDF="325500" > dyn_scale_choice=sqrts  </weight>
<weight id="1006" MUR="2.0" MUF="1.0" PDF="325500" > MUR=2.0  </weight>
<weight id="1007" MUR="2.0" MUF="1.0" DYN_SCALE="1" PDF="325500" > MUR=2.0 dyn_scale_choice=sum pt  </weight>
<weight id="1008" MUR="2.0" MUF="1.0" DYN_SCALE="2" PDF="325500" > MUR=2.0 dyn_scale_choice=HT  </weight>
<weight id="1009" MUR="2.0" MUF="1.0" DYN_SCALE="3" PDF="325500" > MUR=2.0 dyn_scale_choice=HT/2  </weight>
<weight id="1010" MUR="2.0" MUF="1.0" DYN_SCALE="4" PDF="325500" > MUR=2.0 dyn_scale_choice=sqrts  </weight>
<weight id="1011" MUR="0.5" MUF="1.0" PDF="325500" > MUR=0.5  </weight>
<weight id="1012" MUR="0.5" MUF="1.0" DYN_SCALE="1" PDF="325500" > MUR=0.5 dyn_scale_choice=sum pt  </weight>
<weight id="1013" MUR="0.5" MUF="1.0" DYN_SCALE="2" PDF="325500" > MUR=0.5 dyn_scale_choice=HT  </weight>
<weight id="1014" MUR="0.5" MUF="1.0" DYN_SCALE="3" PDF="325500" > MUR=0.5 dyn_scale_choice=HT/2  </weight>
<weight id="1015" MUR="0.5" MUF="1.0" DYN_SCALE="4" PDF="325500" > MUR=0.5 dyn_scale_choice=sqrts  </weight>
<weight id="1016" MUR="1.0" MUF="2.0" PDF="325500" > MUF=2.0  </weight>
<weight id="1017" MUR="1.0" MUF="2.0" DYN_SCALE="1" PDF="325500" > MUF=2.0 dyn_scale_choice=sum pt  </weight>
<weight id="1018" MUR="1.0" MUF="2.0" DYN_SCALE="2" PDF="325500" > MUF=2.0 dyn_scale_choice=HT  </weight>
<weight id="1019" MUR="1.0" MUF="2.0" DYN_SCALE="3" PDF="325500" > MUF=2.0 dyn_scale_choice=HT/2  </weight>
<weight id="1020" MUR="1.0" MUF="2.0" DYN_SCALE="4" PDF="325500" > MUF=2.0 dyn_scale_choice=sqrts  </weight>
<weight id="1021" MUR="2.0" MUF="2.0" PDF="325500" > MUR=2.0 MUF=2.0  </weight>
<weight id="1022" MUR="2.0" MUF="2.0" DYN_SCALE="1" PDF="325500" > MUR=2.0 MUF=2.0 dyn_scale_choice=sum pt  </weight>
<weight id="1023" MUR="2.0" MUF="2.0" DYN_SCALE="2" PDF="325500" > MUR=2.0 MUF=2.0 dyn_scale_choice=HT  </weight>
<weight id="1024" MUR="2.0" MUF="2.0" DYN_SCALE="3" PDF="325500" > MUR=2.0 MUF=2.0 dyn_scale_choice=HT/2  </weight>
<weight id="1025" MUR="2.0" MUF="2.0" DYN_SCALE="4" PDF="325500" > MUR=2.0 MUF=2.0 dyn_scale_choice=sqrts  </weight>
<weight id="1026" MUR="0.5" MUF="2.0" PDF="325500" > MUR=0.5 MUF=2.0  </weight>
<weight id="1027" MUR="0.5" MUF="2.0" DYN_SCALE="1" PDF="325500" > MUR=0.5 MUF=2.0 dyn_scale_choice=sum pt  </weight>
<weight id="1028" MUR="0.5" MUF="2.0" DYN_SCALE="2" PDF="325500" > MUR=0.5 MUF=2.0 dyn_scale_choice=HT  </weight>
<weight id="1029" MUR="0.5" MUF="2.0" DYN_SCALE="3" PDF="325500" > MUR=0.5 MUF=2.0 dyn_scale_choice=HT/2  </weight>
<weight id="1030" MUR="0.5" MUF="2.0" DYN_SCALE="4" PDF="325500" > MUR=0.5 MUF=2.0 dyn_scale_choice=sqrts  </weight>
<weight id="1031" MUR="1.0" MUF="0.5" PDF="325500" > MUF=0.5  </weight>
<weight id="1032" MUR="1.0" MUF="0.5" DYN_SCALE="1" PDF="325500" > MUF=0.5 dyn_scale_choice=sum pt  </weight>
<weight id="1033" MUR="1.0" MUF="0.5" DYN_SCALE="2" PDF="325500" > MUF=0.5 dyn_scale_choice=HT  </weight>
<weight id="1034" MUR="1.0" MUF="0.5" DYN_SCALE="3" PDF="325500" > MUF=0.5 dyn_scale_choice=HT/2  </weight>
<weight id="1035" MUR="1.0" MUF="0.5" DYN_SCALE="4" PDF="325500" > MUF=0.5 dyn_scale_choice=sqrts  </weight>
<weight id="1036" MUR="2.0" MUF="0.5" PDF="325500" > MUR=2.0 MUF=0.5  </weight>
<weight id="1037" MUR="2.0" MUF="0.5" DYN_SCALE="1" PDF="325500" > MUR=2.0 MUF=0.5 dyn_scale_choice=sum pt  </weight>
<weight id="1038" MUR="2.0" MUF="0.5" DYN_SCALE="2" PDF="325500" > MUR=2.0 MUF=0.5 dyn_scale_choice=HT  </weight>
<weight id="1039" MUR="2.0" MUF="0.5" DYN_SCALE="3" PDF="325500" > MUR=2.0 MUF=0.5 dyn_scale_choice=HT/2  </weight>
<weight id="1040" MUR="2.0" MUF="0.5" DYN_SCALE="4" PDF="325500" > MUR=2.0 MUF=0.5 dyn_scale_choice=sqrts  </weight>
<weight id="1041" MUR="0.5" MUF="0.5" PDF="325500" > MUR=0.5 MUF=0.5  </weight>
<weight id="1042" MUR="0.5" MUF="0.5" DYN_SCALE="1" PDF="325500" > MUR=0.5 MUF=0.5 dyn_scale_choice=sum pt  </weight>
<weight id="1043" MUR="0.5" MUF="0.5" DYN_SCALE="2" PDF="325500" > MUR=0.5 MUF=0.5 dyn_scale_choice=HT  </weight>
<weight id="1044" MUR="0.5" MUF="0.5" DYN_SCALE="3" PDF="325500" > MUR=0.5 MUF=0.5 dyn_scale_choice=HT/2  </weight>
<weight id="1045" MUR="0.5" MUF="0.5" DYN_SCALE="4" PDF="325500" > MUR=0.5 MUF=0.5 dyn_scale_choice=sqrts  </weight>
</weightgroup> # scale
<weightgroup name="Emission scale variation" combine="envelope">
<weight id="1046" MUR="1.0" MUF="1.0" ALPSFACT="0.5" PDF="325500" > alpsfact=0.5  </weight>
<weight id="1047" MUR="1.0" MUF="1.0" ALPSFACT="2.0" PDF="325500" > alpsfact=2.0  </weight>
</weightgroup> # ALPS
<weightgroup name="NNPDF31_nnlo_as_0118_nf_4_mc_hessian" combine="symmhessian"> # 325500: Hessian NNPDF31_nnlo_as_0118_nf_4_mc_hessian
<weight id="1048" MUR="1.0" MUF="1.0" PDF="325500" >  </weight>
<weight id="1049" MUR="1.0" MUF="1.0" PDF="325501" > PDF=325500 MemberID=1 </weight>
<weight id="1050" MUR="1.0" MUF="1.0" PDF="325502" > PDF=325500 MemberID=2 </weight>
<weight id="1051" MUR="1.0" MUF="1.0" PDF="325503" > PDF=325500 MemberID=3 </weight>
<weight id="1052" MUR="1.0" MUF="1.0" PDF="325504" > PDF=325500 MemberID=4 </weight>
<weight id="1053" MUR="1.0" MUF="1.0" PDF="325505" > PDF=325500 MemberID=5 </weight>
<weight id="1054" MUR="1.0" MUF="1.0" PDF="325506" > PDF=325500 MemberID=6 </weight>
<weight id="1055" MUR="1.0" MUF="1.0" PDF="325507" > PDF=325500 MemberID=7 </weight>
<weight id="1056" MUR="1.0" MUF="1.0" PDF="325508" > PDF=325500 MemberID=8 </weight>
<weight id="1057" MUR="1.0" MUF="1.0" PDF="325509" > PDF=325500 MemberID=9 </weight>
<weight id="1058" MUR="1.0" MUF="1.0" PDF="325510" > PDF=325500 MemberID=10 </weight>
<weight id="1059" MUR="1.0" MUF="1.0" PDF="325511" > PDF=325500 MemberID=11 </weight>
<weight id="1060" MUR="1.0" MUF="1.0" PDF="325512" > PDF=325500 MemberID=12 </weight>
<weight id="1061" MUR="1.0" MUF="1.0" PDF="325513" > PDF=325500 MemberID=13 </weight>
<weight id="1062" MUR="1.0" MUF="1.0" PDF="325514" > PDF=325500 MemberID=14 </weight>
<weight id="1063" MUR="1.0" MUF="1.0" PDF="325515" > PDF=325500 MemberID=15 </weight>
<weight id="1064" MUR="1.0" MUF="1.0" PDF="325516" > PDF=325500 MemberID=16 </weight>
<weight id="1065" MUR="1.0" MUF="1.0" PDF="325517" > PDF=325500 MemberID=17 </weight>
<weight id="1066" MUR="1.0" MUF="1.0" PDF="325518" > PDF=325500 MemberID=18 </weight>
<weight id="1067" MUR="1.0" MUF="1.0" PDF="325519" > PDF=325500 MemberID=19 </weight>
<weight id="1068" MUR="1.0" MUF="1.0" PDF="325520" > PDF=325500 MemberID=20 </weight>
<weight id="1069" MUR="1.0" MUF="1.0" PDF="325521" > PDF=325500 MemberID=21 </weight>
<weight id="1070" MUR="1.0" MUF="1.0" PDF="325522" > PDF=325500 MemberID=22 </weight>
<weight id="1071" MUR="1.0" MUF="1.0" PDF="325523" > PDF=325500 MemberID=23 </weight>
<weight id="1072" MUR="1.0" MUF="1.0" PDF="325524" > PDF=325500 MemberID=24 </weight>
<weight id="1073" MUR="1.0" MUF="1.0" PDF="325525" > PDF=325500 MemberID=25 </weight>
<weight id="1074" MUR="1.0" MUF="1.0" PDF="325526" > PDF=325500 MemberID=26 </weight>
<weight id="1075" MUR="1.0" MUF="1.0" PDF="325527" > PDF=325500 MemberID=27 </weight>
<weight id="1076" MUR="1.0" MUF="1.0" PDF="325528" > PDF=325500 MemberID=28 </weight>
<weight id="1077" MUR="1.0" MUF="1.0" PDF="325529" > PDF=325500 MemberID=29 </weight>
<weight id="1078" MUR="1.0" MUF="1.0" PDF="325530" > PDF=325500 MemberID=30 </weight>
<weight id="1079" MUR="1.0" MUF="1.0" PDF="325531" > PDF=325500 MemberID=31 </weight>
<weight id="1080" MUR="1.0" MUF="1.0" PDF="325532" > PDF=325500 MemberID=32 </weight>
<weight id="1081" MUR="1.0" MUF="1.0" PDF="325533" > PDF=325500 MemberID=33 </weight>
<weight id="1082" MUR="1.0" MUF="1.0" PDF="325534" > PDF=325500 MemberID=34 </weight>
<weight id="1083" MUR="1.0" MUF="1.0" PDF="325535" > PDF=325500 MemberID=35 </weight>
<weight id="1084" MUR="1.0" MUF="1.0" PDF="325536" > PDF=325500 MemberID=36 </weight>
<weight id="1085" MUR="1.0" MUF="1.0" PDF="325537" > PDF=325500 MemberID=37 </weight>
<weight id="1086" MUR="1.0" MUF="1.0" PDF="325538" > PDF=325500 MemberID=38 </weight>
<weight id="1087" MUR="1.0" MUF="1.0" PDF="325539" > PDF=325500 MemberID=39 </weight>
<weight id="1088" MUR="1.0" MUF="1.0" PDF="325540" > PDF=325500 MemberID=40 </weight>
<weight id="1089" MUR="1.0" MUF="1.0" PDF="325541" > PDF=325500 MemberID=41 </weight>
<weight id="1090" MUR="1.0" MUF="1.0" PDF="325542" > PDF=325500 MemberID=42 </weight>
<weight id="1091" MUR="1.0" MUF="1.0" PDF="325543" > PDF=325500 MemberID=43 </weight>
<weight id="1092" MUR="1.0" MUF="1.0" PDF="325544" > PDF=325500 MemberID=44 </weight>
<weight id="1093" MUR="1.0" MUF="1.0" PDF="325545" > PDF=325500 MemberID=45 </weight>
<weight id="1094" MUR="1.0" MUF="1.0" PDF="325546" > PDF=325500 MemberID=46 </weight>
<weight id="1095" MUR="1.0" MUF="1.0" PDF="325547" > PDF=325500 MemberID=47 </weight>
<weight id="1096" MUR="1.0" MUF="1.0" PDF="325548" > PDF=325500 MemberID=48 </weight>
<weight id="1097" MUR="1.0" MUF="1.0" PDF="325549" > PDF=325500 MemberID=49 </weight>
<weight id="1098" MUR="1.0" MUF="1.0" PDF="325550" > PDF=325500 MemberID=50 </weight>
<weight id="1099" MUR="1.0" MUF="1.0" PDF="325551" > PDF=325500 MemberID=51 </weight>
<weight id="1100" MUR="1.0" MUF="1.0" PDF="325552" > PDF=325500 MemberID=52 </weight>
<weight id="1101" MUR="1.0" MUF="1.0" PDF="325553" > PDF=325500 MemberID=53 </weight>
<weight id="1102" MUR="1.0" MUF="1.0" PDF="325554" > PDF=325500 MemberID=54 </weight>
<weight id="1103" MUR="1.0" MUF="1.0" PDF="325555" > PDF=325500 MemberID=55 </weight>
<weight id="1104" MUR="1.0" MUF="1.0" PDF="325556" > PDF=325500 MemberID=56 </weight>
<weight id="1105" MUR="1.0" MUF="1.0" PDF="325557" > PDF=325500 MemberID=57 </weight>
<weight id="1106" MUR="1.0" MUF="1.0" PDF="325558" > PDF=325500 MemberID=58 </weight>
<weight id="1107" MUR="1.0" MUF="1.0" PDF="325559" > PDF=325500 MemberID=59 </weight>
<weight id="1108" MUR="1.0" MUF="1.0" PDF="325560" > PDF=325500 MemberID=60 </weight>
<weight id="1109" MUR="1.0" MUF="1.0" PDF="325561" > PDF=325500 MemberID=61 </weight>
<weight id="1110" MUR="1.0" MUF="1.0" PDF="325562" > PDF=325500 MemberID=62 </weight>
<weight id="1111" MUR="1.0" MUF="1.0" PDF="325563" > PDF=325500 MemberID=63 </weight>
<weight id="1112" MUR="1.0" MUF="1.0" PDF="325564" > PDF=325500 MemberID=64 </weight>
<weight id="1113" MUR="1.0" MUF="1.0" PDF="325565" > PDF=325500 MemberID=65 </weight>
<weight id="1114" MUR="1.0" MUF="1.0" PDF="325566" > PDF=325500 MemberID=66 </weight>
<weight id="1115" MUR="1.0" MUF="1.0" PDF="325567" > PDF=325500 MemberID=67 </weight>
<weight id="1116" MUR="1.0" MUF="1.0" PDF="325568" > PDF=325500 MemberID=68 </weight>
<weight id="1117" MUR="1.0" MUF="1.0" PDF="325569" > PDF=325500 MemberID=69 </weight>
<weight id="1118" MUR="1.0" MUF="1.0" PDF="325570" > PDF=325500 MemberID=70 </weight>
<weight id="1119" MUR="1.0" MUF="1.0" PDF="325571" > PDF=325500 MemberID=71 </weight>
<weight id="1120" MUR="1.0" MUF="1.0" PDF="325572" > PDF=325500 MemberID=72 </weight>
<weight id="1121" MUR="1.0" MUF="1.0" PDF="325573" > PDF=325500 MemberID=73 </weight>
<weight id="1122" MUR="1.0" MUF="1.0" PDF="325574" > PDF=325500 MemberID=74 </weight>
<weight id="1123" MUR="1.0" MUF="1.0" PDF="325575" > PDF=325500 MemberID=75 </weight>
<weight id="1124" MUR="1.0" MUF="1.0" PDF="325576" > PDF=325500 MemberID=76 </weight>
<weight id="1125" MUR="1.0" MUF="1.0" PDF="325577" > PDF=325500 MemberID=77 </weight>
<weight id="1126" MUR="1.0" MUF="1.0" PDF="325578" > PDF=325500 MemberID=78 </weight>
<weight id="1127" MUR="1.0" MUF="1.0" PDF="325579" > PDF=325500 MemberID=79 </weight>
<weight id="1128" MUR="1.0" MUF="1.0" PDF="325580" > PDF=325500 MemberID=80 </weight>
<weight id="1129" MUR="1.0" MUF="1.0" PDF="325581" > PDF=325500 MemberID=81 </weight>
<weight id="1130" MUR="1.0" MUF="1.0" PDF="325582" > PDF=325500 MemberID=82 </weight>
<weight id="1131" MUR="1.0" MUF="1.0" PDF="325583" > PDF=325500 MemberID=83 </weight>
<weight id="1132" MUR="1.0" MUF="1.0" PDF="325584" > PDF=325500 MemberID=84 </weight>
<weight id="1133" MUR="1.0" MUF="1.0" PDF="325585" > PDF=325500 MemberID=85 </weight>
<weight id="1134" MUR="1.0" MUF="1.0" PDF="325586" > PDF=325500 MemberID=86 </weight>
<weight id="1135" MUR="1.0" MUF="1.0" PDF="325587" > PDF=325500 MemberID=87 </weight>
<weight id="1136" MUR="1.0" MUF="1.0" PDF="325588" > PDF=325500 MemberID=88 </weight>
<weight id="1137" MUR="1.0" MUF="1.0" PDF="325589" > PDF=325500 MemberID=89 </weight>
<weight id="1138" MUR="1.0" MUF="1.0" PDF="325590" > PDF=325500 MemberID=90 </weight>
<weight id="1139" MUR="1.0" MUF="1.0" PDF="325591" > PDF=325500 MemberID=91 </weight>
<weight id="1140" MUR="1.0" MUF="1.0" PDF="325592" > PDF=325500 MemberID=92 </weight>
<weight id="1141" MUR="1.0" MUF="1.0" PDF="325593" > PDF=325500 MemberID=93 </weight>
<weight id="1142" MUR="1.0" MUF="1.0" PDF="325594" > PDF=325500 MemberID=94 </weight>
<weight id="1143" MUR="1.0" MUF="1.0" PDF="325595" > PDF=325500 MemberID=95 </weight>
<weight id="1144" MUR="1.0" MUF="1.0" PDF="325596" > PDF=325500 MemberID=96 </weight>
<weight id="1145" MUR="1.0" MUF="1.0" PDF="325597" > PDF=325500 MemberID=97 </weight>
<weight id="1146" MUR="1.0" MUF="1.0" PDF="325598" > PDF=325500 MemberID=98 </weight>
<weight id="1147" MUR="1.0" MUF="1.0" PDF="325599" > PDF=325500 MemberID=99 </weight>
<weight id="1148" MUR="1.0" MUF="1.0" PDF="325600" > PDF=325500 MemberID=100 </weight>
</weightgroup> # PDFSET -> PDFSET
<weightgroup name="NNPDF31_nnlo_as_0118_nf_4" combine="replicas"> # 320900: NNPDF3.1 NNLO global fit, nf=4. mem=0 ; average on replicas; mem=1-100 ; PDF replicas
<weight id="1149" MUR="1.0" MUF="1.0" PDF="320900" > PDF=320900 MemberID=0 </weight>
<weight id="1150" MUR="1.0" MUF="1.0" PDF="320901" > PDF=320900 MemberID=1 </weight>
<weight id="1151" MUR="1.0" MUF="1.0" PDF="320902" > PDF=320900 MemberID=2 </weight>
<weight id="1152" MUR="1.0" MUF="1.0" PDF="320903" > PDF=320900 MemberID=3 </weight>
<weight id="1153" MUR="1.0" MUF="1.0" PDF="320904" > PDF=320900 MemberID=4 </weight>
<weight id="1154" MUR="1.0" MUF="1.0" PDF="320905" > PDF=320900 MemberID=5 </weight>
<weight id="1155" MUR="1.0" MUF="1.0" PDF="320906" > PDF=320900 MemberID=6 </weight>
<weight id="1156" MUR="1.0" MUF="1.0" PDF="320907" > PDF=320900 MemberID=7 </weight>
<weight id="1157" MUR="1.0" MUF="1.0" PDF="320908" > PDF=320900 MemberID=8 </weight>
<weight id="1158" MUR="1.0" MUF="1.0" PDF="320909" > PDF=320900 MemberID=9 </weight>
<weight id="1159" MUR="1.0" MUF="1.0" PDF="320910" > PDF=320900 MemberID=10 </weight>
<weight id="1160" MUR="1.0" MUF="1.0" PDF="320911" > PDF=320900 MemberID=11 </weight>
<weight id="1161" MUR="1.0" MUF="1.0" PDF="320912" > PDF=320900 MemberID=12 </weight>
<weight id="1162" MUR="1.0" MUF="1.0" PDF="320913" > PDF=320900 MemberID=13 </weight>
<weight id="1163" MUR="1.0" MUF="1.0" PDF="320914" > PDF=320900 MemberID=14 </weight>
<weight id="1164" MUR="1.0" MUF="1.0" PDF="320915" > PDF=320900 MemberID=15 </weight>
<weight id="1165" MUR="1.0" MUF="1.0" PDF="320916" > PDF=320900 MemberID=16 </weight>
<weight id="1166" MUR="1.0" MUF="1.0" PDF="320917" > PDF=320900 MemberID=17 </weight>
<weight id="1167" MUR="1.0" MUF="1.0" PDF="320918" > PDF=320900 MemberID=18 </weight>
<weight id="1168" MUR="1.0" MUF="1.0" PDF="320919" > PDF=320900 MemberID=19 </weight>
<weight id="1169" MUR="1.0" MUF="1.0" PDF="320920" > PDF=320900 MemberID=20 </weight>
<weight id="1170" MUR="1.0" MUF="1.0" PDF="320921" > PDF=320900 MemberID=21 </weight>
<weight id="1171" MUR="1.0" MUF="1.0" PDF="320922" > PDF=320900 MemberID=22 </weight>
<weight id="1172" MUR="1.0" MUF="1.0" PDF="320923" > PDF=320900 MemberID=23 </weight>
<weight id="1173" MUR="1.0" MUF="1.0" PDF="320924" > PDF=320900 MemberID=24 </weight>
<weight id="1174" MUR="1.0" MUF="1.0" PDF="320925" > PDF=320900 MemberID=25 </weight>
<weight id="1175" MUR="1.0" MUF="1.0" PDF="320926" > PDF=320900 MemberID=26 </weight>
<weight id="1176" MUR="1.0" MUF="1.0" PDF="320927" > PDF=320900 MemberID=27 </weight>
<weight id="1177" MUR="1.0" MUF="1.0" PDF="320928" > PDF=320900 MemberID=28 </weight>
<weight id="1178" MUR="1.0" MUF="1.0" PDF="320929" > PDF=320900 MemberID=29 </weight>
<weight id="1179" MUR="1.0" MUF="1.0" PDF="320930" > PDF=320900 MemberID=30 </weight>
<weight id="1180" MUR="1.0" MUF="1.0" PDF="320931" > PDF=320900 MemberID=31 </weight>
<weight id="1181" MUR="1.0" MUF="1.0" PDF="320932" > PDF=320900 MemberID=32 </weight>
<weight id="1182" MUR="1.0" MUF="1.0" PDF="320933" > PDF=320900 MemberID=33 </weight>
<weight id="1183" MUR="1.0" MUF="1.0" PDF="320934" > PDF=320900 MemberID=34 </weight>
<weight id="1184" MUR="1.0" MUF="1.0" PDF="320935" > PDF=320900 MemberID=35 </weight>
<weight id="1185" MUR="1.0" MUF="1.0" PDF="320936" > PDF=320900 MemberID=36 </weight>
<weight id="1186" MUR="1.0" MUF="1.0" PDF="320937" > PDF=320900 MemberID=37 </weight>
<weight id="1187" MUR="1.0" MUF="1.0" PDF="320938" > PDF=320900 MemberID=38 </weight>
<weight id="1188" MUR="1.0" MUF="1.0" PDF="320939" > PDF=320900 MemberID=39 </weight>
<weight id="1189" MUR="1.0" MUF="1.0" PDF="320940" > PDF=320900 MemberID=40 </weight>
<weight id="1190" MUR="1.0" MUF="1.0" PDF="320941" > PDF=320900 MemberID=41 </weight>
<weight id="1191" MUR="1.0" MUF="1.0" PDF="320942" > PDF=320900 MemberID=42 </weight>
<weight id="1192" MUR="1.0" MUF="1.0" PDF="320943" > PDF=320900 MemberID=43 </weight>
<weight id="1193" MUR="1.0" MUF="1.0" PDF="320944" > PDF=320900 MemberID=44 </weight>
<weight id="1194" MUR="1.0" MUF="1.0" PDF="320945" > PDF=320900 MemberID=45 </weight>
<weight id="1195" MUR="1.0" MUF="1.0" PDF="320946" > PDF=320900 MemberID=46 </weight>
<weight id="1196" MUR="1.0" MUF="1.0" PDF="320947" > PDF=320900 MemberID=47 </weight>
<weight id="1197" MUR="1.0" MUF="1.0" PDF="320948" > PDF=320900 MemberID=48 </weight>
<weight id="1198" MUR="1.0" MUF="1.0" PDF="320949" > PDF=320900 MemberID=49 </weight>
<weight id="1199" MUR="1.0" MUF="1.0" PDF="320950" > PDF=320900 MemberID=50 </weight>
<weight id="1200" MUR="1.0" MUF="1.0" PDF="320951" > PDF=320900 MemberID=51 </weight>
<weight id="1201" MUR="1.0" MUF="1.0" PDF="320952" > PDF=320900 MemberID=52 </weight>
<weight id="1202" MUR="1.0" MUF="1.0" PDF="320953" > PDF=320900 MemberID=53 </weight>
<weight id="1203" MUR="1.0" MUF="1.0" PDF="320954" > PDF=320900 MemberID=54 </weight>
<weight id="1204" MUR="1.0" MUF="1.0" PDF="320955" > PDF=320900 MemberID=55 </weight>
<weight id="1205" MUR="1.0" MUF="1.0" PDF="320956" > PDF=320900 MemberID=56 </weight>
<weight id="1206" MUR="1.0" MUF="1.0" PDF="320957" > PDF=320900 MemberID=57 </weight>
<weight id="1207" MUR="1.0" MUF="1.0" PDF="320958" > PDF=320900 MemberID=58 </weight>
<weight id="1208" MUR="1.0" MUF="1.0" PDF="320959" > PDF=320900 MemberID=59 </weight>
<weight id="1209" MUR="1.0" MUF="1.0" PDF="320960" > PDF=320900 MemberID=60 </weight>
<weight id="1210" MUR="1.0" MUF="1.0" PDF="320961" > PDF=320900 MemberID=61 </weight>
<weight id="1211" MUR="1.0" MUF="1.0" PDF="320962" > PDF=320900 MemberID=62 </weight>
<weight id="1212" MUR="1.0" MUF="1.0" PDF="320963" > PDF=320900 MemberID=63 </weight>
<weight id="1213" MUR="1.0" MUF="1.0" PDF="320964" > PDF=320900 MemberID=64 </weight>
<weight id="1214" MUR="1.0" MUF="1.0" PDF="320965" > PDF=320900 MemberID=65 </weight>
<weight id="1215" MUR="1.0" MUF="1.0" PDF="320966" > PDF=320900 MemberID=66 </weight>
<weight id="1216" MUR="1.0" MUF="1.0" PDF="320967" > PDF=320900 MemberID=67 </weight>
<weight id="1217" MUR="1.0" MUF="1.0" PDF="320968" > PDF=320900 MemberID=68 </weight>
<weight id="1218" MUR="1.0" MUF="1.0" PDF="320969" > PDF=320900 MemberID=69 </weight>
<weight id="1219" MUR="1.0" MUF="1.0" PDF="320970" > PDF=320900 MemberID=70 </weight>
<weight id="1220" MUR="1.0" MUF="1.0" PDF="320971" > PDF=320900 MemberID=71 </weight>
<weight id="1221" MUR="1.0" MUF="1.0" PDF="320972" > PDF=320900 MemberID=72 </weight>
<weight id="1222" MUR="1.0" MUF="1.0" PDF="320973" > PDF=320900 MemberID=73 </weight>
<weight id="1223" MUR="1.0" MUF="1.0" PDF="320974" > PDF=320900 MemberID=74 </weight>
<weight id="1224" MUR="1.0" MUF="1.0" PDF="320975" > PDF=320900 MemberID=75 </weight>
<weight id="1225" MUR="1.0" MUF="1.0" PDF="320976" > PDF=320900 MemberID=76 </weight>
<weight id="1226" MUR="1.0" MUF="1.0" PDF="320977" > PDF=320900 MemberID=77 </weight>
<weight id="1227" MUR="1.0" MUF="1.0" PDF="320978" > PDF=320900 MemberID=78 </weight>
<weight id="1228" MUR="1.0" MUF="1.0" PDF="320979" > PDF=320900 MemberID=79 </weight>
<weight id="1229" MUR="1.0" MUF="1.0" PDF="320980" > PDF=320900 MemberID=80 </weight>
<weight id="1230" MUR="1.0" MUF="1.0" PDF="320981" > PDF=320900 MemberID=81 </weight>
<weight id="1231" MUR="1.0" MUF="1.0" PDF="320982" > PDF=320900 MemberID=82 </weight>
<weight id="1232" MUR="1.0" MUF="1.0" PDF="320983" > PDF=320900 MemberID=83 </weight>
<weight id="1233" MUR="1.0" MUF="1.0" PDF="320984" > PDF=320900 MemberID=84 </weight>
<weight id="1234" MUR="1.0" MUF="1.0" PDF="320985" > PDF=320900 MemberID=85 </weight>
<weight id="1235" MUR="1.0" MUF="1.0" PDF="320986" > PDF=320900 MemberID=86 </weight>
<weight id="1236" MUR="1.0" MUF="1.0" PDF="320987" > PDF=320900 MemberID=87 </weight>
<weight id="1237" MUR="1.0" MUF="1.0" PDF="320988" > PDF=320900 MemberID=88 </weight>
<weight id="1238" MUR="1.0" MUF="1.0" PDF="320989" > PDF=320900 MemberID=89 </weight>
<weight id="1239" MUR="1.0" MUF="1.0" PDF="320990" > PDF=320900 MemberID=90 </weight>
<weight id="1240" MUR="1.0" MUF="1.0" PDF="320991" > PDF=320900 MemberID=91 </weight>
<weight id="1241" MUR="1.0" MUF="1.0" PDF="320992" > PDF=320900 MemberID=92 </weight>
<weight id="1242" MUR="1.0" MUF="1.0" PDF="320993" > PDF=320900 MemberID=93 </weight>
<weight id="1243" MUR="1.0" MUF="1.0" PDF="320994" > PDF=320900 MemberID=94 </weight>
<weight id="1244" MUR="1.0" MUF="1.0" PDF="320995" > PDF=320900 MemberID=95 </weight>
<weight id="1245" MUR="1.0" MUF="1.0" PDF="320996" > PDF=320900 MemberID=96 </weight>
<weight id="1246" MUR="1.0" MUF="1.0" PDF="320997" > PDF=320900 MemberID=97 </weight>
<weight id="1247" MUR="1.0" MUF="1.0" PDF="320998" > PDF=320900 MemberID=98 </weight>
<weight id="1248" MUR="1.0" MUF="1.0" PDF="320999" > PDF=320900 MemberID=99 </weight>
<weight id="1249" MUR="1.0" MUF="1.0" PDF="321000" > PDF=320900 MemberID=100 </weight>
</weightgroup> # PDFSET -> PDFSET
<weightgroup name="CT10nlo_nf4" combine="unknown"> # 11082: CT10 NLO PDF fixed 4-flavour fits using the standard CTEQ PDF evolution but using the HOPPET alphas_s running solution. NEW CT12 grid type. Excluding the D0 Run-II W asymmetry data. mem=0 ; mem=0 ; NF4 high scale Q=m_Z=91.190 GeV; mem=1 ; NF4 low scale  Q=m_tau=1.778 GeV
<weight id="1250" MUR="1.0" MUF="1.0" PDF="11082" > PDF=11082 MemberID=0 </weight>
<weight id="1251" MUR="1.0" MUF="1.0" PDF="11083" > PDF=11082 MemberID=1 </weight>
</weightgroup> # PDFSET -> PDF
<weight id="1252" MUR="1.0" MUF="1.0" PDF="13091" > PDF=13091 MemberID=0 </weight>
<weight id="1253" MUR="1.0" MUF="1.0" PDF="13191" > PDF=13191 MemberID=0 </weight>
<weight id="1254" MUR="1.0" MUF="1.0" PDF="13202" > PDF=13202 MemberID=0 </weight>
<weightgroup name="MSTW2008lo68cl_nf4" combine="hessian"> # 23100: MSTW 2008 LO (68% C.L.) evolved with 4 flavours maximum.  This set has 41 member PDFs.  mem=0 ; central value; mem=1-40 ; 20 eigenvectors (+/- directions).  http://mstwpdf.hepforge.org
<weight id="1255" MUR="1.0" MUF="1.0" PDF="23100" > PDF=23100 MemberID=0 </weight>
<weight id="1256" MUR="1.0" MUF="1.0" PDF="23101" > PDF=23100 MemberID=1 </weight>
<weight id="1257" MUR="1.0" MUF="1.0" PDF="23102" > PDF=23100 MemberID=2 </weight>
<weight id="1258" MUR="1.0" MUF="1.0" PDF="23103" > PDF=23100 MemberID=3 </weight>
<weight id="1259" MUR="1.0" MUF="1.0" PDF="23104" > PDF=23100 MemberID=4 </weight>
<weight id="1260" MUR="1.0" MUF="1.0" PDF="23105" > PDF=23100 MemberID=5 </weight>
<weight id="1261" MUR="1.0" MUF="1.0" PDF="23106" > PDF=23100 MemberID=6 </weight>
<weight id="1262" MUR="1.0" MUF="1.0" PDF="23107" > PDF=23100 MemberID=7 </weight>
<weight id="1263" MUR="1.0" MUF="1.0" PDF="23108" > PDF=23100 MemberID=8 </weight>
<weight id="1264" MUR="1.0" MUF="1.0" PDF="23109" > PDF=23100 MemberID=9 </weight>
<weight id="1265" MUR="1.0" MUF="1.0" PDF="23110" > PDF=23100 MemberID=10 </weight>
<weight id="1266" MUR="1.0" MUF="1.0" PDF="23111" > PDF=23100 MemberID=11 </weight>
<weight id="1267" MUR="1.0" MUF="1.0" PDF="23112" > PDF=23100 MemberID=12 </weight>
<weight id="1268" MUR="1.0" MUF="1.0" PDF="23113" > PDF=23100 MemberID=13 </weight>
<weight id="1269" MUR="1.0" MUF="1.0" PDF="23114" > PDF=23100 MemberID=14 </weight>
<weight id="1270" MUR="1.0" MUF="1.0" PDF="23115" > PDF=23100 MemberID=15 </weight>
<weight id="1271" MUR="1.0" MUF="1.0" PDF="23116" > PDF=23100 MemberID=16 </weight>
<weight id="1272" MUR="1.0" MUF="1.0" PDF="23117" > PDF=23100 MemberID=17 </weight>
<weight id="1273" MUR="1.0" MUF="1.0" PDF="23118" > PDF=23100 MemberID=18 </weight>
<weight id="1274" MUR="1.0" MUF="1.0" PDF="23119" > PDF=23100 MemberID=19 </weight>
<weight id="1275" MUR="1.0" MUF="1.0" PDF="23120" > PDF=23100 MemberID=20 </weight>
<weight id="1276" MUR="1.0" MUF="1.0" PDF="23121" > PDF=23100 MemberID=21 </weight>
<weight id="1277" MUR="1.0" MUF="1.0" PDF="23122" > PDF=23100 MemberID=22 </weight>
<weight id="1278" MUR="1.0" MUF="1.0" PDF="23123" > PDF=23100 MemberID=23 </weight>
<weight id="1279" MUR="1.0" MUF="1.0" PDF="23124" > PDF=23100 MemberID=24 </weight>
<weight id="1280" MUR="1.0" MUF="1.0" PDF="23125" > PDF=23100 MemberID=25 </weight>
<weight id="1281" MUR="1.0" MUF="1.0" PDF="23126" > PDF=23100 MemberID=26 </weight>
<weight id="1282" MUR="1.0" MUF="1.0" PDF="23127" > PDF=23100 MemberID=27 </weight>
<weight id="1283" MUR="1.0" MUF="1.0" PDF="23128" > PDF=23100 MemberID=28 </weight>
<weight id="1284" MUR="1.0" MUF="1.0" PDF="23129" > PDF=23100 MemberID=29 </weight>
<weight id="1285" MUR="1.0" MUF="1.0" PDF="23130" > PDF=23100 MemberID=30 </weight>
<weight id="1286" MUR="1.0" MUF="1.0" PDF="23131" > PDF=23100 MemberID=31 </weight>
<weight id="1287" MUR="1.0" MUF="1.0" PDF="23132" > PDF=23100 MemberID=32 </weight>
<weight id="1288" MUR="1.0" MUF="1.0" PDF="23133" > PDF=23100 MemberID=33 </weight>
<weight id="1289" MUR="1.0" MUF="1.0" PDF="23134" > PDF=23100 MemberID=34 </weight>
<weight id="1290" MUR="1.0" MUF="1.0" PDF="23135" > PDF=23100 MemberID=35 </weight>
<weight id="1291" MUR="1.0" MUF="1.0" PDF="23136" > PDF=23100 MemberID=36 </weight>
<weight id="1292" MUR="1.0" MUF="1.0" PDF="23137" > PDF=23100 MemberID=37 </weight>
<weight id="1293" MUR="1.0" MUF="1.0" PDF="23138" > PDF=23100 MemberID=38 </weight>
<weight id="1294" MUR="1.0" MUF="1.0" PDF="23139" > PDF=23100 MemberID=39 </weight>
<weight id="1295" MUR="1.0" MUF="1.0" PDF="23140" > PDF=23100 MemberID=40 </weight>
</weightgroup> # PDFSET -> PDFSET
<weightgroup name="MSTW2008nlo68cl_nf4" combine="hessian"> # 23300: MSTW 2008 NLO (68% C.L.) evolved with 4 flavours maximum.  This set has 41 member PDFs.  mem=0 ; central value; mem=1-40 ; 20 eigenvectors (+/- directions).  http://mstwpdf.hepforge.org
<weight id="1296" MUR="1.0" MUF="1.0" PDF="23300" > PDF=23300 MemberID=0 </weight>
<weight id="1297" MUR="1.0" MUF="1.0" PDF="23301" > PDF=23300 MemberID=1 </weight>
<weight id="1298" MUR="1.0" MUF="1.0" PDF="23302" > PDF=23300 MemberID=2 </weight>
<weight id="1299" MUR="1.0" MUF="1.0" PDF="23303" > PDF=23300 MemberID=3 </weight>
<weight id="1300" MUR="1.0" MUF="1.0" PDF="23304" > PDF=23300 MemberID=4 </weight>
<weight id="1301" MUR="1.0" MUF="1.0" PDF="23305" > PDF=23300 MemberID=5 </weight>
<weight id="1302" MUR="1.0" MUF="1.0" PDF="23306" > PDF=23300 MemberID=6 </weight>
<weight id="1303" MUR="1.0" MUF="1.0" PDF="23307" > PDF=23300 MemberID=7 </weight>
<weight id="1304" MUR="1.0" MUF="1.0" PDF="23308" > PDF=23300 MemberID=8 </weight>
<weight id="1305" MUR="1.0" MUF="1.0" PDF="23309" > PDF=23300 MemberID=9 </weight>
<weight id="1306" MUR="1.0" MUF="1.0" PDF="23310" > PDF=23300 MemberID=10 </weight>
<weight id="1307" MUR="1.0" MUF="1.0" PDF="23311" > PDF=23300 MemberID=11 </weight>
<weight id="1308" MUR="1.0" MUF="1.0" PDF="23312" > PDF=23300 MemberID=12 </weight>
<weight id="1309" MUR="1.0" MUF="1.0" PDF="23313" > PDF=23300 MemberID=13 </weight>
<weight id="1310" MUR="1.0" MUF="1.0" PDF="23314" > PDF=23300 MemberID=14 </weight>
<weight id="1311" MUR="1.0" MUF="1.0" PDF="23315" > PDF=23300 MemberID=15 </weight>
<weight id="1312" MUR="1.0" MUF="1.0" PDF="23316" > PDF=23300 MemberID=16 </weight>
<weight id="1313" MUR="1.0" MUF="1.0" PDF="23317" > PDF=23300 MemberID=17 </weight>
<weight id="1314" MUR="1.0" MUF="1.0" PDF="23318" > PDF=23300 MemberID=18 </weight>
<weight id="1315" MUR="1.0" MUF="1.0" PDF="23319" > PDF=23300 MemberID=19 </weight>
<weight id="1316" MUR="1.0" MUF="1.0" PDF="23320" > PDF=23300 MemberID=20 </weight>
<weight id="1317" MUR="1.0" MUF="1.0" PDF="23321" > PDF=23300 MemberID=21 </weight>
<weight id="1318" MUR="1.0" MUF="1.0" PDF="23322" > PDF=23300 MemberID=22 </weight>
<weight id="1319" MUR="1.0" MUF="1.0" PDF="23323" > PDF=23300 MemberID=23 </weight>
<weight id="1320" MUR="1.0" MUF="1.0" PDF="23324" > PDF=23300 MemberID=24 </weight>
<weight id="1321" MUR="1.0" MUF="1.0" PDF="23325" > PDF=23300 MemberID=25 </weight>
<weight id="1322" MUR="1.0" MUF="1.0" PDF="23326" > PDF=23300 MemberID=26 </weight>
<weight id="1323" MUR="1.0" MUF="1.0" PDF="23327" > PDF=23300 MemberID=27 </weight>
<weight id="1324" MUR="1.0" MUF="1.0" PDF="23328" > PDF=23300 MemberID=28 </weight>
<weight id="1325" MUR="1.0" MUF="1.0" PDF="23329" > PDF=23300 MemberID=29 </weight>
<weight id="1326" MUR="1.0" MUF="1.0" PDF="23330" > PDF=23300 MemberID=30 </weight>
<weight id="1327" MUR="1.0" MUF="1.0" PDF="23331" > PDF=23300 MemberID=31 </weight>
<weight id="1328" MUR="1.0" MUF="1.0" PDF="23332" > PDF=23300 MemberID=32 </weight>
<weight id="1329" MUR="1.0" MUF="1.0" PDF="23333" > PDF=23300 MemberID=33 </weight>
<weight id="1330" MUR="1.0" MUF="1.0" PDF="23334" > PDF=23300 MemberID=34 </weight>
<weight id="1331" MUR="1.0" MUF="1.0" PDF="23335" > PDF=23300 MemberID=35 </weight>
<weight id="1332" MUR="1.0" MUF="1.0" PDF="23336" > PDF=23300 MemberID=36 </weight>
<weight id="1333" MUR="1.0" MUF="1.0" PDF="23337" > PDF=23300 MemberID=37 </weight>
<weight id="1334" MUR="1.0" MUF="1.0" PDF="23338" > PDF=23300 MemberID=38 </weight>
<weight id="1335" MUR="1.0" MUF="1.0" PDF="23339" > PDF=23300 MemberID=39 </weight>
<weight id="1336" MUR="1.0" MUF="1.0" PDF="23340" > PDF=23300 MemberID=40 </weight>
</weightgroup> # PDFSET -> PDFSET
<weightgroup name="MSTW2008nlo_mbrange_nf4" combine="unknown"> # 23490: MSTW 2008 NLO (fits for range of m_b values, evolve with 4 flavours maximum).  This set has 7 member PDFs.  mem=0 ; default m_b = 4.75 GeV; mem=1-6 ; m_b = 4.00, 4.25, 4.50, 5.00, 5.25, 5.50 GeV.  http://mstwpdf.hepforge.org
<weight id="1337" MUR="1.0" MUF="1.0" PDF="23490" > PDF=23490 MemberID=0 </weight>
<weight id="1338" MUR="1.0" MUF="1.0" PDF="23491" > PDF=23490 MemberID=1 </weight>
<weight id="1339" MUR="1.0" MUF="1.0" PDF="23492" > PDF=23490 MemberID=2 </weight>
<weight id="1340" MUR="1.0" MUF="1.0" PDF="23493" > PDF=23490 MemberID=3 </weight>
<weight id="1341" MUR="1.0" MUF="1.0" PDF="23494" > PDF=23490 MemberID=4 </weight>
<weight id="1342" MUR="1.0" MUF="1.0" PDF="23495" > PDF=23490 MemberID=5 </weight>
<weight id="1343" MUR="1.0" MUF="1.0" PDF="23496" > PDF=23490 MemberID=6 </weight>
</weightgroup> # PDFSET -> PDFSET
<weightgroup name="MSTW2008nnlo68cl_nf4" combine="hessian"> # 23600: MSTW 2008 NNLO (68% C.L.) evolved with 4 flavours maximum.  This set has 41 member PDFs.  mem=0 ; central value; mem=1-40 ; 20 eigenvectors (+/- directions).  http://mstwpdf.hepforge.org
<weight id="1344" MUR="1.0" MUF="1.0" PDF="23600" > PDF=23600 MemberID=0 </weight>
<weight id="1345" MUR="1.0" MUF="1.0" PDF="23601" > PDF=23600 MemberID=1 </weight>
<weight id="1346" MUR="1.0" MUF="1.0" PDF="23602" > PDF=23600 MemberID=2 </weight>
<weight id="1347" MUR="1.0" MUF="1.0" PDF="23603" > PDF=23600 MemberID=3 </weight>
<weight id="1348" MUR="1.0" MUF="1.0" PDF="23604" > PDF=23600 MemberID=4 </weight>
<weight id="1349" MUR="1.0" MUF="1.0" PDF="23605" > PDF=23600 MemberID=5 </weight>
<weight id="1350" MUR="1.0" MUF="1.0" PDF="23606" > PDF=23600 MemberID=6 </weight>
<weight id="1351" MUR="1.0" MUF="1.0" PDF="23607" > PDF=23600 MemberID=7 </weight>
<weight id="1352" MUR="1.0" MUF="1.0" PDF="23608" > PDF=23600 MemberID=8 </weight>
<weight id="1353" MUR="1.0" MUF="1.0" PDF="23609" > PDF=23600 MemberID=9 </weight>
<weight id="1354" MUR="1.0" MUF="1.0" PDF="23610" > PDF=23600 MemberID=10 </weight>
<weight id="1355" MUR="1.0" MUF="1.0" PDF="23611" > PDF=23600 MemberID=11 </weight>
<weight id="1356" MUR="1.0" MUF="1.0" PDF="23612" > PDF=23600 MemberID=12 </weight>
<weight id="1357" MUR="1.0" MUF="1.0" PDF="23613" > PDF=23600 MemberID=13 </weight>
<weight id="1358" MUR="1.0" MUF="1.0" PDF="23614" > PDF=23600 MemberID=14 </weight>
<weight id="1359" MUR="1.0" MUF="1.0" PDF="23615" > PDF=23600 MemberID=15 </weight>
<weight id="1360" MUR="1.0" MUF="1.0" PDF="23616" > PDF=23600 MemberID=16 </weight>
<weight id="1361" MUR="1.0" MUF="1.0" PDF="23617" > PDF=23600 MemberID=17 </weight>
<weight id="1362" MUR="1.0" MUF="1.0" PDF="23618" > PDF=23600 MemberID=18 </weight>
<weight id="1363" MUR="1.0" MUF="1.0" PDF="23619" > PDF=23600 MemberID=19 </weight>
<weight id="1364" MUR="1.0" MUF="1.0" PDF="23620" > PDF=23600 MemberID=20 </weight>
<weight id="1365" MUR="1.0" MUF="1.0" PDF="23621" > PDF=23600 MemberID=21 </weight>
<weight id="1366" MUR="1.0" MUF="1.0" PDF="23622" > PDF=23600 MemberID=22 </weight>
<weight id="1367" MUR="1.0" MUF="1.0" PDF="23623" > PDF=23600 MemberID=23 </weight>
<weight id="1368" MUR="1.0" MUF="1.0" PDF="23624" > PDF=23600 MemberID=24 </weight>
<weight id="1369" MUR="1.0" MUF="1.0" PDF="23625" > PDF=23600 MemberID=25 </weight>
<weight id="1370" MUR="1.0" MUF="1.0" PDF="23626" > PDF=23600 MemberID=26 </weight>
<weight id="1371" MUR="1.0" MUF="1.0" PDF="23627" > PDF=23600 MemberID=27 </weight>
<weight id="1372" MUR="1.0" MUF="1.0" PDF="23628" > PDF=23600 MemberID=28 </weight>
<weight id="1373" MUR="1.0" MUF="1.0" PDF="23629" > PDF=23600 MemberID=29 </weight>
<weight id="1374" MUR="1.0" MUF="1.0" PDF="23630" > PDF=23600 MemberID=30 </weight>
<weight id="1375" MUR="1.0" MUF="1.0" PDF="23631" > PDF=23600 MemberID=31 </weight>
<weight id="1376" MUR="1.0" MUF="1.0" PDF="23632" > PDF=23600 MemberID=32 </weight>
<weight id="1377" MUR="1.0" MUF="1.0" PDF="23633" > PDF=23600 MemberID=33 </weight>
<weight id="1378" MUR="1.0" MUF="1.0" PDF="23634" > PDF=23600 MemberID=34 </weight>
<weight id="1379" MUR="1.0" MUF="1.0" PDF="23635" > PDF=23600 MemberID=35 </weight>
<weight id="1380" MUR="1.0" MUF="1.0" PDF="23636" > PDF=23600 MemberID=36 </weight>
<weight id="1381" MUR="1.0" MUF="1.0" PDF="23637" > PDF=23600 MemberID=37 </weight>
<weight id="1382" MUR="1.0" MUF="1.0" PDF="23638" > PDF=23600 MemberID=38 </weight>
<weight id="1383" MUR="1.0" MUF="1.0" PDF="23639" > PDF=23600 MemberID=39 </weight>
<weight id="1384" MUR="1.0" MUF="1.0" PDF="23640" > PDF=23600 MemberID=40 </weight>
</weightgroup> # PDFSET -> PDFSET
<weightgroup name="MSTW2008nnlo_mbrange_nf4" combine="unknown"> # 23790: MSTW 2008 NNLO (fits for range of m_b values, evolve with 4 flavours maximum).  This set has 7 member PDFs.  mem=0 ; default m_b = 4.75 GeV; mem=1-6 ; m_b = 4.00, 4.25, 4.50, 5.00, 5.25, 5.50 GeV.  http://mstwpdf.hepforge.org
<weight id="1385" MUR="1.0" MUF="1.0" PDF="23790" > PDF=23790 MemberID=0 </weight>
<weight id="1386" MUR="1.0" MUF="1.0" PDF="23791" > PDF=23790 MemberID=1 </weight>
<weight id="1387" MUR="1.0" MUF="1.0" PDF="23792" > PDF=23790 MemberID=2 </weight>
<weight id="1388" MUR="1.0" MUF="1.0" PDF="23793" > PDF=23790 MemberID=3 </weight>
<weight id="1389" MUR="1.0" MUF="1.0" PDF="23794" > PDF=23790 MemberID=4 </weight>
<weight id="1390" MUR="1.0" MUF="1.0" PDF="23795" > PDF=23790 MemberID=5 </weight>
<weight id="1391" MUR="1.0" MUF="1.0" PDF="23796" > PDF=23790 MemberID=6 </weight>
</weightgroup> # PDFSET -> PDFSET
<weightgroup name="MMHT2014nlo68cl_nf4" combine="hessian"> # 25410: MMHT 2014 NLO (68% C.L.): evolve with 4 flavours maximum. This set has 51 member PDFs. mem=0 --.gt. central value; mem=1-50 --.gt. 20 eigenvector sets (+/- directions). Website: www.hep.ucl.ac.uk/mmht
<weight id="1392" MUR="1.0" MUF="1.0" PDF="25410" > PDF=25410 MemberID=0 </weight>
<weight id="1393" MUR="1.0" MUF="1.0" PDF="25411" > PDF=25410 MemberID=1 </weight>
<weight id="1394" MUR="1.0" MUF="1.0" PDF="25412" > PDF=25410 MemberID=2 </weight>
<weight id="1395" MUR="1.0" MUF="1.0" PDF="25413" > PDF=25410 MemberID=3 </weight>
<weight id="1396" MUR="1.0" MUF="1.0" PDF="25414" > PDF=25410 MemberID=4 </weight>
<weight id="1397" MUR="1.0" MUF="1.0" PDF="25415" > PDF=25410 MemberID=5 </weight>
<weight id="1398" MUR="1.0" MUF="1.0" PDF="25416" > PDF=25410 MemberID=6 </weight>
<weight id="1399" MUR="1.0" MUF="1.0" PDF="25417" > PDF=25410 MemberID=7 </weight>
<weight id="1400" MUR="1.0" MUF="1.0" PDF="25418" > PDF=25410 MemberID=8 </weight>
<weight id="1401" MUR="1.0" MUF="1.0" PDF="25419" > PDF=25410 MemberID=9 </weight>
<weight id="1402" MUR="1.0" MUF="1.0" PDF="25420" > PDF=25410 MemberID=10 </weight>
<weight id="1403" MUR="1.0" MUF="1.0" PDF="25421" > PDF=25410 MemberID=11 </weight>
<weight id="1404" MUR="1.0" MUF="1.0" PDF="25422" > PDF=25410 MemberID=12 </weight>
<weight id="1405" MUR="1.0" MUF="1.0" PDF="25423" > PDF=25410 MemberID=13 </weight>
<weight id="1406" MUR="1.0" MUF="1.0" PDF="25424" > PDF=25410 MemberID=14 </weight>
<weight id="1407" MUR="1.0" MUF="1.0" PDF="25425" > PDF=25410 MemberID=15 </weight>
<weight id="1408" MUR="1.0" MUF="1.0" PDF="25426" > PDF=25410 MemberID=16 </weight>
<weight id="1409" MUR="1.0" MUF="1.0" PDF="25427" > PDF=25410 MemberID=17 </weight>
<weight id="1410" MUR="1.0" MUF="1.0" PDF="25428" > PDF=25410 MemberID=18 </weight>
<weight id="1411" MUR="1.0" MUF="1.0" PDF="25429" > PDF=25410 MemberID=19 </weight>
<weight id="1412" MUR="1.0" MUF="1.0" PDF="25430" > PDF=25410 MemberID=20 </weight>
<weight id="1413" MUR="1.0" MUF="1.0" PDF="25431" > PDF=25410 MemberID=21 </weight>
<weight id="1414" MUR="1.0" MUF="1.0" PDF="25432" > PDF=25410 MemberID=22 </weight>
<weight id="1415" MUR="1.0" MUF="1.0" PDF="25433" > PDF=25410 MemberID=23 </weight>
<weight id="1416" MUR="1.0" MUF="1.0" PDF="25434" > PDF=25410 MemberID=24 </weight>
<weight id="1417" MUR="1.0" MUF="1.0" PDF="25435" > PDF=25410 MemberID=25 </weight>
<weight id="1418" MUR="1.0" MUF="1.0" PDF="25436" > PDF=25410 MemberID=26 </weight>
<weight id="1419" MUR="1.0" MUF="1.0" PDF="25437" > PDF=25410 MemberID=27 </weight>
<weight id="1420" MUR="1.0" MUF="1.0" PDF="25438" > PDF=25410 MemberID=28 </weight>
<weight id="1421" MUR="1.0" MUF="1.0" PDF="25439" > PDF=25410 MemberID=29 </weight>
<weight id="1422" MUR="1.0" MUF="1.0" PDF="25440" > PDF=25410 MemberID=30 </weight>
<weight id="1423" MUR="1.0" MUF="1.0" PDF="25441" > PDF=25410 MemberID=31 </weight>
<weight id="1424" MUR="1.0" MUF="1.0" PDF="25442" > PDF=25410 MemberID=32 </weight>
<weight id="1425" MUR="1.0" MUF="1.0" PDF="25443" > PDF=25410 MemberID=33 </weight>
<weight id="1426" MUR="1.0" MUF="1.0" PDF="25444" > PDF=25410 MemberID=34 </weight>
<weight id="1427" MUR="1.0" MUF="1.0" PDF="25445" > PDF=25410 MemberID=35 </weight>
<weight id="1428" MUR="1.0" MUF="1.0" PDF="25446" > PDF=25410 MemberID=36 </weight>
<weight id="1429" MUR="1.0" MUF="1.0" PDF="25447" > PDF=25410 MemberID=37 </weight>
<weight id="1430" MUR="1.0" MUF="1.0" PDF="25448" > PDF=25410 MemberID=38 </weight>
<weight id="1431" MUR="1.0" MUF="1.0" PDF="25449" > PDF=25410 MemberID=39 </weight>
<weight id="1432" MUR="1.0" MUF="1.0" PDF="25450" > PDF=25410 MemberID=40 </weight>
<weight id="1433" MUR="1.0" MUF="1.0" PDF="25451" > PDF=25410 MemberID=41 </weight>
<weight id="1434" MUR="1.0" MUF="1.0" PDF="25452" > PDF=25410 MemberID=42 </weight>
<weight id="1435" MUR="1.0" MUF="1.0" PDF="25453" > PDF=25410 MemberID=43 </weight>
<weight id="1436" MUR="1.0" MUF="1.0" PDF="25454" > PDF=25410 MemberID=44 </weight>
<weight id="1437" MUR="1.0" MUF="1.0" PDF="25455" > PDF=25410 MemberID=45 </weight>
<weight id="1438" MUR="1.0" MUF="1.0" PDF="25456" > PDF=25410 MemberID=46 </weight>
<weight id="1439" MUR="1.0" MUF="1.0" PDF="25457" > PDF=25410 MemberID=47 </weight>
<weight id="1440" MUR="1.0" MUF="1.0" PDF="25458" > PDF=25410 MemberID=48 </weight>
<weight id="1441" MUR="1.0" MUF="1.0" PDF="25459" > PDF=25410 MemberID=49 </weight>
<weight id="1442" MUR="1.0" MUF="1.0" PDF="25460" > PDF=25410 MemberID=50 </weight>
</weightgroup> # PDFSET -> PDFSET
<weightgroup name="MMHT2014nlo68clas118_nf4" combine="hessian"> # 25510: MMHT 2014 NLO (68% C.L.): evolve with 4 flavours maximum. This set has 51 member PDFs. mem=0 --.gt. central value; mem=1-50 --.gt. 20 eigenvector sets (+/- directions). Website: www.hep.ucl.ac.uk/mmht
<weight id="1443" MUR="1.0" MUF="1.0" PDF="25510" > PDF=25510 MemberID=0 </weight>
<weight id="1444" MUR="1.0" MUF="1.0" PDF="25511" > PDF=25510 MemberID=1 </weight>
<weight id="1445" MUR="1.0" MUF="1.0" PDF="25512" > PDF=25510 MemberID=2 </weight>
<weight id="1446" MUR="1.0" MUF="1.0" PDF="25513" > PDF=25510 MemberID=3 </weight>
<weight id="1447" MUR="1.0" MUF="1.0" PDF="25514" > PDF=25510 MemberID=4 </weight>
<weight id="1448" MUR="1.0" MUF="1.0" PDF="25515" > PDF=25510 MemberID=5 </weight>
<weight id="1449" MUR="1.0" MUF="1.0" PDF="25516" > PDF=25510 MemberID=6 </weight>
<weight id="1450" MUR="1.0" MUF="1.0" PDF="25517" > PDF=25510 MemberID=7 </weight>
<weight id="1451" MUR="1.0" MUF="1.0" PDF="25518" > PDF=25510 MemberID=8 </weight>
<weight id="1452" MUR="1.0" MUF="1.0" PDF="25519" > PDF=25510 MemberID=9 </weight>
<weight id="1453" MUR="1.0" MUF="1.0" PDF="25520" > PDF=25510 MemberID=10 </weight>
<weight id="1454" MUR="1.0" MUF="1.0" PDF="25521" > PDF=25510 MemberID=11 </weight>
<weight id="1455" MUR="1.0" MUF="1.0" PDF="25522" > PDF=25510 MemberID=12 </weight>
<weight id="1456" MUR="1.0" MUF="1.0" PDF="25523" > PDF=25510 MemberID=13 </weight>
<weight id="1457" MUR="1.0" MUF="1.0" PDF="25524" > PDF=25510 MemberID=14 </weight>
<weight id="1458" MUR="1.0" MUF="1.0" PDF="25525" > PDF=25510 MemberID=15 </weight>
<weight id="1459" MUR="1.0" MUF="1.0" PDF="25526" > PDF=25510 MemberID=16 </weight>
<weight id="1460" MUR="1.0" MUF="1.0" PDF="25527" > PDF=25510 MemberID=17 </weight>
<weight id="1461" MUR="1.0" MUF="1.0" PDF="25528" > PDF=25510 MemberID=18 </weight>
<weight id="1462" MUR="1.0" MUF="1.0" PDF="25529" > PDF=25510 MemberID=19 </weight>
<weight id="1463" MUR="1.0" MUF="1.0" PDF="25530" > PDF=25510 MemberID=20 </weight>
<weight id="1464" MUR="1.0" MUF="1.0" PDF="25531" > PDF=25510 MemberID=21 </weight>
<weight id="1465" MUR="1.0" MUF="1.0" PDF="25532" > PDF=25510 MemberID=22 </weight>
<weight id="1466" MUR="1.0" MUF="1.0" PDF="25533" > PDF=25510 MemberID=23 </weight>
<weight id="1467" MUR="1.0" MUF="1.0" PDF="25534" > PDF=25510 MemberID=24 </weight>
<weight id="1468" MUR="1.0" MUF="1.0" PDF="25535" > PDF=25510 MemberID=25 </weight>
<weight id="1469" MUR="1.0" MUF="1.0" PDF="25536" > PDF=25510 MemberID=26 </weight>
<weight id="1470" MUR="1.0" MUF="1.0" PDF="25537" > PDF=25510 MemberID=27 </weight>
<weight id="1471" MUR="1.0" MUF="1.0" PDF="25538" > PDF=25510 MemberID=28 </weight>
<weight id="1472" MUR="1.0" MUF="1.0" PDF="25539" > PDF=25510 MemberID=29 </weight>
<weight id="1473" MUR="1.0" MUF="1.0" PDF="25540" > PDF=25510 MemberID=30 </weight>
<weight id="1474" MUR="1.0" MUF="1.0" PDF="25541" > PDF=25510 MemberID=31 </weight>
<weight id="1475" MUR="1.0" MUF="1.0" PDF="25542" > PDF=25510 MemberID=32 </weight>
<weight id="1476" MUR="1.0" MUF="1.0" PDF="25543" > PDF=25510 MemberID=33 </weight>
<weight id="1477" MUR="1.0" MUF="1.0" PDF="25544" > PDF=25510 MemberID=34 </weight>
<weight id="1478" MUR="1.0" MUF="1.0" PDF="25545" > PDF=25510 MemberID=35 </weight>
<weight id="1479" MUR="1.0" MUF="1.0" PDF="25546" > PDF=25510 MemberID=36 </weight>
<weight id="1480" MUR="1.0" MUF="1.0" PDF="25547" > PDF=25510 MemberID=37 </weight>
<weight id="1481" MUR="1.0" MUF="1.0" PDF="25548" > PDF=25510 MemberID=38 </weight>
<weight id="1482" MUR="1.0" MUF="1.0" PDF="25549" > PDF=25510 MemberID=39 </weight>
<weight id="1483" MUR="1.0" MUF="1.0" PDF="25550" > PDF=25510 MemberID=40 </weight>
<weight id="1484" MUR="1.0" MUF="1.0" PDF="25551" > PDF=25510 MemberID=41 </weight>
<weight id="1485" MUR="1.0" MUF="1.0" PDF="25552" > PDF=25510 MemberID=42 </weight>
<weight id="1486" MUR="1.0" MUF="1.0" PDF="25553" > PDF=25510 MemberID=43 </weight>
<weight id="1487" MUR="1.0" MUF="1.0" PDF="25554" > PDF=25510 MemberID=44 </weight>
<weight id="1488" MUR="1.0" MUF="1.0" PDF="25555" > PDF=25510 MemberID=45 </weight>
<weight id="1489" MUR="1.0" MUF="1.0" PDF="25556" > PDF=25510 MemberID=46 </weight>
<weight id="1490" MUR="1.0" MUF="1.0" PDF="25557" > PDF=25510 MemberID=47 </weight>
<weight id="1491" MUR="1.0" MUF="1.0" PDF="25558" > PDF=25510 MemberID=48 </weight>
<weight id="1492" MUR="1.0" MUF="1.0" PDF="25559" > PDF=25510 MemberID=49 </weight>
<weight id="1493" MUR="1.0" MUF="1.0" PDF="25560" > PDF=25510 MemberID=50 </weight>
</weightgroup> # PDFSET -> PDFSET
<weightgroup name="MMHT2014nlo_asmzsmallrange_nf4" combine="unknown"> # 25570: MMHT 2014 NLO (fits for range of alpha_S values, evolve with 4 flavours maximum). This set has 5 member PDFs. mem=0 --.gt. best-fit alpha_S(M_Z) = 0.120; mem=1-4 --.gt. alpha_S(M_Z) = 0.117,...,0.121. Website: www.hep.ucl.ac.uk/mmht
<weight id="1494" MUR="1.0" MUF="1.0" PDF="25570" > PDF=25570 MemberID=0 </weight>
<weight id="1495" MUR="1.0" MUF="1.0" PDF="25571" > PDF=25570 MemberID=1 </weight>
<weight id="1496" MUR="1.0" MUF="1.0" PDF="25572" > PDF=25570 MemberID=2 </weight>
<weight id="1497" MUR="1.0" MUF="1.0" PDF="25573" > PDF=25570 MemberID=3 </weight>
<weight id="1498" MUR="1.0" MUF="1.0" PDF="25574" > PDF=25570 MemberID=4 </weight>
</weightgroup> # PDFSET -> PDFSET
<weightgroup name="MMHT2014nlo_mcrange_nf4" combine="unknown"> # 25605: MMHT 2014 NLO (range of mc, evolve with 4 flavours maximum). This set has 9 member PDFs. mem=0 --.gt. default mc = 1.40 GeV; mem=1-8 --.gt. mc = 1.15 - 1.55 GeV in steps of 0.05 GeV. Website: www.hep.ucl.ac.uk/mmht
<weight id="1499" MUR="1.0" MUF="1.0" PDF="25605" > PDF=25605 MemberID=0 </weight>
<weight id="1500" MUR="1.0" MUF="1.0" PDF="25606" > PDF=25605 MemberID=1 </weight>
<weight id="1501" MUR="1.0" MUF="1.0" PDF="25607" > PDF=25605 MemberID=2 </weight>
<weight id="1502" MUR="1.0" MUF="1.0" PDF="25608" > PDF=25605 MemberID=3 </weight>
<weight id="1503" MUR="1.0" MUF="1.0" PDF="25609" > PDF=25605 MemberID=4 </weight>
<weight id="1504" MUR="1.0" MUF="1.0" PDF="25610" > PDF=25605 MemberID=5 </weight>
<weight id="1505" MUR="1.0" MUF="1.0" PDF="25611" > PDF=25605 MemberID=6 </weight>
<weight id="1506" MUR="1.0" MUF="1.0" PDF="25612" > PDF=25605 MemberID=7 </weight>
<weight id="1507" MUR="1.0" MUF="1.0" PDF="25613" > PDF=25605 MemberID=8 </weight>
</weightgroup> # PDFSET -> PDFSET
<weightgroup name="MMHT2014nlo_mbrange_nf4" combine="unknown"> # 25620: MMHT 2014 NLO (range of mb, evolve with 4 flavours maximum). This set has 5 member PDFs. mem=0 --.gt. default mb = 4.75 GeV; mem=1-4 --.gt. mb = 4.25 - 5.25 GeV in steps of 0.25 GeV. Website: www.hep.ucl.ac.uk/mmht
<weight id="1508" MUR="1.0" MUF="1.0" PDF="25620" > PDF=25620 MemberID=0 </weight>
<weight id="1509" MUR="1.0" MUF="1.0" PDF="25621" > PDF=25620 MemberID=1 </weight>
<weight id="1510" MUR="1.0" MUF="1.0" PDF="25622" > PDF=25620 MemberID=2 </weight>
<weight id="1511" MUR="1.0" MUF="1.0" PDF="25623" > PDF=25620 MemberID=3 </weight>
<weight id="1512" MUR="1.0" MUF="1.0" PDF="25624" > PDF=25620 MemberID=4 </weight>
</weightgroup> # PDFSET -> PDFSET
<weightgroup name="MMHT2014nnlo68cl_nf4" combine="hessian"> # 25710: MMHT 2014 NNLO (68% C.L.): evolve with 4 flavours maximum. This set has 51 member PDFs. mem=0 --.gt. central value; mem=1-50 --.gt. 20 eigenvector sets (+/- directions). Website: www.hep.ucl.ac.uk/mmht
<weight id="1513" MUR="1.0" MUF="1.0" PDF="25710" > PDF=25710 MemberID=0 </weight>
<weight id="1514" MUR="1.0" MUF="1.0" PDF="25711" > PDF=25710 MemberID=1 </weight>
<weight id="1515" MUR="1.0" MUF="1.0" PDF="25712" > PDF=25710 MemberID=2 </weight>
<weight id="1516" MUR="1.0" MUF="1.0" PDF="25713" > PDF=25710 MemberID=3 </weight>
<weight id="1517" MUR="1.0" MUF="1.0" PDF="25714" > PDF=25710 MemberID=4 </weight>
<weight id="1518" MUR="1.0" MUF="1.0" PDF="25715" > PDF=25710 MemberID=5 </weight>
<weight id="1519" MUR="1.0" MUF="1.0" PDF="25716" > PDF=25710 MemberID=6 </weight>
<weight id="1520" MUR="1.0" MUF="1.0" PDF="25717" > PDF=25710 MemberID=7 </weight>
<weight id="1521" MUR="1.0" MUF="1.0" PDF="25718" > PDF=25710 MemberID=8 </weight>
<weight id="1522" MUR="1.0" MUF="1.0" PDF="25719" > PDF=25710 MemberID=9 </weight>
<weight id="1523" MUR="1.0" MUF="1.0" PDF="25720" > PDF=25710 MemberID=10 </weight>
<weight id="1524" MUR="1.0" MUF="1.0" PDF="25721" > PDF=25710 MemberID=11 </weight>
<weight id="1525" MUR="1.0" MUF="1.0" PDF="25722" > PDF=25710 MemberID=12 </weight>
<weight id="1526" MUR="1.0" MUF="1.0" PDF="25723" > PDF=25710 MemberID=13 </weight>
<weight id="1527" MUR="1.0" MUF="1.0" PDF="25724" > PDF=25710 MemberID=14 </weight>
<weight id="1528" MUR="1.0" MUF="1.0" PDF="25725" > PDF=25710 MemberID=15 </weight>
<weight id="1529" MUR="1.0" MUF="1.0" PDF="25726" > PDF=25710 MemberID=16 </weight>
<weight id="1530" MUR="1.0" MUF="1.0" PDF="25727" > PDF=25710 MemberID=17 </weight>
<weight id="1531" MUR="1.0" MUF="1.0" PDF="25728" > PDF=25710 MemberID=18 </weight>
<weight id="1532" MUR="1.0" MUF="1.0" PDF="25729" > PDF=25710 MemberID=19 </weight>
<weight id="1533" MUR="1.0" MUF="1.0" PDF="25730" > PDF=25710 MemberID=20 </weight>
<weight id="1534" MUR="1.0" MUF="1.0" PDF="25731" > PDF=25710 MemberID=21 </weight>
<weight id="1535" MUR="1.0" MUF="1.0" PDF="25732" > PDF=25710 MemberID=22 </weight>
<weight id="1536" MUR="1.0" MUF="1.0" PDF="25733" > PDF=25710 MemberID=23 </weight>
<weight id="1537" MUR="1.0" MUF="1.0" PDF="25734" > PDF=25710 MemberID=24 </weight>
<weight id="1538" MUR="1.0" MUF="1.0" PDF="25735" > PDF=25710 MemberID=25 </weight>
<weight id="1539" MUR="1.0" MUF="1.0" PDF="25736" > PDF=25710 MemberID=26 </weight>
<weight id="1540" MUR="1.0" MUF="1.0" PDF="25737" > PDF=25710 MemberID=27 </weight>
<weight id="1541" MUR="1.0" MUF="1.0" PDF="25738" > PDF=25710 MemberID=28 </weight>
<weight id="1542" MUR="1.0" MUF="1.0" PDF="25739" > PDF=25710 MemberID=29 </weight>
<weight id="1543" MUR="1.0" MUF="1.0" PDF="25740" > PDF=25710 MemberID=30 </weight>
<weight id="1544" MUR="1.0" MUF="1.0" PDF="25741" > PDF=25710 MemberID=31 </weight>
<weight id="1545" MUR="1.0" MUF="1.0" PDF="25742" > PDF=25710 MemberID=32 </weight>
<weight id="1546" MUR="1.0" MUF="1.0" PDF="25743" > PDF=25710 MemberID=33 </weight>
<weight id="1547" MUR="1.0" MUF="1.0" PDF="25744" > PDF=25710 MemberID=34 </weight>
<weight id="1548" MUR="1.0" MUF="1.0" PDF="25745" > PDF=25710 MemberID=35 </weight>
<weight id="1549" MUR="1.0" MUF="1.0" PDF="25746" > PDF=25710 MemberID=36 </weight>
<weight id="1550" MUR="1.0" MUF="1.0" PDF="25747" > PDF=25710 MemberID=37 </weight>
<weight id="1551" MUR="1.0" MUF="1.0" PDF="25748" > PDF=25710 MemberID=38 </weight>
<weight id="1552" MUR="1.0" MUF="1.0" PDF="25749" > PDF=25710 MemberID=39 </weight>
<weight id="1553" MUR="1.0" MUF="1.0" PDF="25750" > PDF=25710 MemberID=40 </weight>
<weight id="1554" MUR="1.0" MUF="1.0" PDF="25751" > PDF=25710 MemberID=41 </weight>
<weight id="1555" MUR="1.0" MUF="1.0" PDF="25752" > PDF=25710 MemberID=42 </weight>
<weight id="1556" MUR="1.0" MUF="1.0" PDF="25753" > PDF=25710 MemberID=43 </weight>
<weight id="1557" MUR="1.0" MUF="1.0" PDF="25754" > PDF=25710 MemberID=44 </weight>
<weight id="1558" MUR="1.0" MUF="1.0" PDF="25755" > PDF=25710 MemberID=45 </weight>
<weight id="1559" MUR="1.0" MUF="1.0" PDF="25756" > PDF=25710 MemberID=46 </weight>
<weight id="1560" MUR="1.0" MUF="1.0" PDF="25757" > PDF=25710 MemberID=47 </weight>
<weight id="1561" MUR="1.0" MUF="1.0" PDF="25758" > PDF=25710 MemberID=48 </weight>
<weight id="1562" MUR="1.0" MUF="1.0" PDF="25759" > PDF=25710 MemberID=49 </weight>
<weight id="1563" MUR="1.0" MUF="1.0" PDF="25760" > PDF=25710 MemberID=50 </weight>
</weightgroup> # PDFSET -> PDFSET
<weightgroup name="MMHT2014nnlo_asmzsmallrange_nf4" combine="unknown"> # 25770: MMHT 2014 NNLO (fits for range of alpha_S values, evolve with 4 flavours maximum). This set has 3 member PDFs. mem=0 --.gt. best-fit alpha_S(M_Z) = 0.118; mem=1-2 --.gt. alpha_S(M_Z) = 0.117, 0.119. Website: www.hep.ucl.ac.uk/mmht
<weight id="1564" MUR="1.0" MUF="1.0" PDF="25770" > PDF=25770 MemberID=0 </weight>
<weight id="1565" MUR="1.0" MUF="1.0" PDF="25771" > PDF=25770 MemberID=1 </weight>
<weight id="1566" MUR="1.0" MUF="1.0" PDF="25772" > PDF=25770 MemberID=2 </weight>
</weightgroup> # PDFSET -> PDFSET
<weightgroup name="MMHT2014nnlo_mcrange_nf4" combine="unknown"> # 25805: MMHT 2014 NNLO (range of mc, evolve with 4 flavours maximum). This set has 9 member PDFs. mem=0 --.gt. default mc = 1.40 GeV; mem=1-8 --.gt. mc = 1.15 - 1.55 GeV in steps of 0.05 GeV. Website: www.hep.ucl.ac.uk/mmht
<weight id="1567" MUR="1.0" MUF="1.0" PDF="25805" > PDF=25805 MemberID=0 </weight>
<weight id="1568" MUR="1.0" MUF="1.0" PDF="25806" > PDF=25805 MemberID=1 </weight>
<weight id="1569" MUR="1.0" MUF="1.0" PDF="25807" > PDF=25805 MemberID=2 </weight>
<weight id="1570" MUR="1.0" MUF="1.0" PDF="25808" > PDF=25805 MemberID=3 </weight>
<weight id="1571" MUR="1.0" MUF="1.0" PDF="25809" > PDF=25805 MemberID=4 </weight>
<weight id="1572" MUR="1.0" MUF="1.0" PDF="25810" > PDF=25805 MemberID=5 </weight>
<weight id="1573" MUR="1.0" MUF="1.0" PDF="25811" > PDF=25805 MemberID=6 </weight>
<weight id="1574" MUR="1.0" MUF="1.0" PDF="25812" > PDF=25805 MemberID=7 </weight>
<weight id="1575" MUR="1.0" MUF="1.0" PDF="25813" > PDF=25805 MemberID=8 </weight>
</weightgroup> # PDFSET -> PDFSET
<weightgroup name="MMHT2014nnlo_mbrange_nf4" combine="unknown"> # 25840: MMHT 2014 NNLO (range of mb, evolve with 4 flavours maximum). This set has 5 member PDFs. mem=0 --.gt. default mb = 4.75 GeV; mem=1-4 --.gt. mb = 4.25 - 5.25 GeV in steps of 0.25 GeV. Website: www.hep.ucl.ac.uk/mmht
<weight id="1576" MUR="1.0" MUF="1.0" PDF="25840" > PDF=25840 MemberID=0 </weight>
<weight id="1577" MUR="1.0" MUF="1.0" PDF="25841" > PDF=25840 MemberID=1 </weight>
<weight id="1578" MUR="1.0" MUF="1.0" PDF="25842" > PDF=25840 MemberID=2 </weight>
<weight id="1579" MUR="1.0" MUF="1.0" PDF="25843" > PDF=25840 MemberID=3 </weight>
<weight id="1580" MUR="1.0" MUF="1.0" PDF="25844" > PDF=25840 MemberID=4 </weight>
</weightgroup> # PDFSET -> PDFSET
<weightgroup name="PDF4LHC15_nlo_nf4_30" combine="symmhessian"> # 92000: PDF4LHC15_nlo_nf4_30, alphas(MZ)=0.1126, mem=0 ; central value; mem=1-30 ; PDF symmetric eigenvectors
<weight id="1581" MUR="1.0" MUF="1.0" PDF="92000" > PDF=92000 MemberID=0 </weight>
<weight id="1582" MUR="1.0" MUF="1.0" PDF="92001" > PDF=92000 MemberID=1 </weight>
<weight id="1583" MUR="1.0" MUF="1.0" PDF="92002" > PDF=92000 MemberID=2 </weight>
<weight id="1584" MUR="1.0" MUF="1.0" PDF="92003" > PDF=92000 MemberID=3 </weight>
<weight id="1585" MUR="1.0" MUF="1.0" PDF="92004" > PDF=92000 MemberID=4 </weight>
<weight id="1586" MUR="1.0" MUF="1.0" PDF="92005" > PDF=92000 MemberID=5 </weight>
<weight id="1587" MUR="1.0" MUF="1.0" PDF="92006" > PDF=92000 MemberID=6 </weight>
<weight id="1588" MUR="1.0" MUF="1.0" PDF="92007" > PDF=92000 MemberID=7 </weight>
<weight id="1589" MUR="1.0" MUF="1.0" PDF="92008" > PDF=92000 MemberID=8 </weight>
<weight id="1590" MUR="1.0" MUF="1.0" PDF="92009" > PDF=92000 MemberID=9 </weight>
<weight id="1591" MUR="1.0" MUF="1.0" PDF="92010" > PDF=92000 MemberID=10 </weight>
<weight id="1592" MUR="1.0" MUF="1.0" PDF="92011" > PDF=92000 MemberID=11 </weight>
<weight id="1593" MUR="1.0" MUF="1.0" PDF="92012" > PDF=92000 MemberID=12 </weight>
<weight id="1594" MUR="1.0" MUF="1.0" PDF="92013" > PDF=92000 MemberID=13 </weight>
<weight id="1595" MUR="1.0" MUF="1.0" PDF="92014" > PDF=92000 MemberID=14 </weight>
<weight id="1596" MUR="1.0" MUF="1.0" PDF="92015" > PDF=92000 MemberID=15 </weight>
<weight id="1597" MUR="1.0" MUF="1.0" PDF="92016" > PDF=92000 MemberID=16 </weight>
<weight id="1598" MUR="1.0" MUF="1.0" PDF="92017" > PDF=92000 MemberID=17 </weight>
<weight id="1599" MUR="1.0" MUF="1.0" PDF="92018" > PDF=92000 MemberID=18 </weight>
<weight id="1600" MUR="1.0" MUF="1.0" PDF="92019" > PDF=92000 MemberID=19 </weight>
<weight id="1601" MUR="1.0" MUF="1.0" PDF="92020" > PDF=92000 MemberID=20 </weight>
<weight id="1602" MUR="1.0" MUF="1.0" PDF="92021" > PDF=92000 MemberID=21 </weight>
<weight id="1603" MUR="1.0" MUF="1.0" PDF="92022" > PDF=92000 MemberID=22 </weight>
<weight id="1604" MUR="1.0" MUF="1.0" PDF="92023" > PDF=92000 MemberID=23 </weight>
<weight id="1605" MUR="1.0" MUF="1.0" PDF="92024" > PDF=92000 MemberID=24 </weight>
<weight id="1606" MUR="1.0" MUF="1.0" PDF="92025" > PDF=92000 MemberID=25 </weight>
<weight id="1607" MUR="1.0" MUF="1.0" PDF="92026" > PDF=92000 MemberID=26 </weight>
<weight id="1608" MUR="1.0" MUF="1.0" PDF="92027" > PDF=92000 MemberID=27 </weight>
<weight id="1609" MUR="1.0" MUF="1.0" PDF="92028" > PDF=92000 MemberID=28 </weight>
<weight id="1610" MUR="1.0" MUF="1.0" PDF="92029" > PDF=92000 MemberID=29 </weight>
<weight id="1611" MUR="1.0" MUF="1.0" PDF="92030" > PDF=92000 MemberID=30 </weight>
</weightgroup> # PDFSET -> PDFSET
<weightgroup name="NNPDF31_nnlo_hessian_pdfas" combine="symmhessian+as"> # 306000: Hessian conversion of NNPDF31_nnlo_as_0118_1000, mem=0 central value ; Alphas(MZ)=0.118; mem=1-100 ; PDF eig.; mem=101 ; central value Alphas(MZ)=0.116; mem=102 ; central value Alphas(MZ)=0.120
<weight id="1612" MUR="1.0" MUF="1.0" PDF="306000" > PDF=306000 MemberID=0 </weight>
<weight id="1613" MUR="1.0" MUF="1.0" PDF="306001" > PDF=306000 MemberID=1 </weight>
<weight id="1614" MUR="1.0" MUF="1.0" PDF="306002" > PDF=306000 MemberID=2 </weight>
<weight id="1615" MUR="1.0" MUF="1.0" PDF="306003" > PDF=306000 MemberID=3 </weight>
<weight id="1616" MUR="1.0" MUF="1.0" PDF="306004" > PDF=306000 MemberID=4 </weight>
<weight id="1617" MUR="1.0" MUF="1.0" PDF="306005" > PDF=306000 MemberID=5 </weight>
<weight id="1618" MUR="1.0" MUF="1.0" PDF="306006" > PDF=306000 MemberID=6 </weight>
<weight id="1619" MUR="1.0" MUF="1.0" PDF="306007" > PDF=306000 MemberID=7 </weight>
<weight id="1620" MUR="1.0" MUF="1.0" PDF="306008" > PDF=306000 MemberID=8 </weight>
<weight id="1621" MUR="1.0" MUF="1.0" PDF="306009" > PDF=306000 MemberID=9 </weight>
<weight id="1622" MUR="1.0" MUF="1.0" PDF="306010" > PDF=306000 MemberID=10 </weight>
<weight id="1623" MUR="1.0" MUF="1.0" PDF="306011" > PDF=306000 MemberID=11 </weight>
<weight id="1624" MUR="1.0" MUF="1.0" PDF="306012" > PDF=306000 MemberID=12 </weight>
<weight id="1625" MUR="1.0" MUF="1.0" PDF="306013" > PDF=306000 MemberID=13 </weight>
<weight id="1626" MUR="1.0" MUF="1.0" PDF="306014" > PDF=306000 MemberID=14 </weight>
<weight id="1627" MUR="1.0" MUF="1.0" PDF="306015" > PDF=306000 MemberID=15 </weight>
<weight id="1628" MUR="1.0" MUF="1.0" PDF="306016" > PDF=306000 MemberID=16 </weight>
<weight id="1629" MUR="1.0" MUF="1.0" PDF="306017" > PDF=306000 MemberID=17 </weight>
<weight id="1630" MUR="1.0" MUF="1.0" PDF="306018" > PDF=306000 MemberID=18 </weight>
<weight id="1631" MUR="1.0" MUF="1.0" PDF="306019" > PDF=306000 MemberID=19 </weight>
<weight id="1632" MUR="1.0" MUF="1.0" PDF="306020" > PDF=306000 MemberID=20 </weight>
<weight id="1633" MUR="1.0" MUF="1.0" PDF="306021" > PDF=306000 MemberID=21 </weight>
<weight id="1634" MUR="1.0" MUF="1.0" PDF="306022" > PDF=306000 MemberID=22 </weight>
<weight id="1635" MUR="1.0" MUF="1.0" PDF="306023" > PDF=306000 MemberID=23 </weight>
<weight id="1636" MUR="1.0" MUF="1.0" PDF="306024" > PDF=306000 MemberID=24 </weight>
<weight id="1637" MUR="1.0" MUF="1.0" PDF="306025" > PDF=306000 MemberID=25 </weight>
<weight id="1638" MUR="1.0" MUF="1.0" PDF="306026" > PDF=306000 MemberID=26 </weight>
<weight id="1639" MUR="1.0" MUF="1.0" PDF="306027" > PDF=306000 MemberID=27 </weight>
<weight id="1640" MUR="1.0" MUF="1.0" PDF="306028" > PDF=306000 MemberID=28 </weight>
<weight id="1641" MUR="1.0" MUF="1.0" PDF="306029" > PDF=306000 MemberID=29 </weight>
<weight id="1642" MUR="1.0" MUF="1.0" PDF="306030" > PDF=306000 MemberID=30 </weight>
<weight id="1643" MUR="1.0" MUF="1.0" PDF="306031" > PDF=306000 MemberID=31 </weight>
<weight id="1644" MUR="1.0" MUF="1.0" PDF="306032" > PDF=306000 MemberID=32 </weight>
<weight id="1645" MUR="1.0" MUF="1.0" PDF="306033" > PDF=306000 MemberID=33 </weight>
<weight id="1646" MUR="1.0" MUF="1.0" PDF="306034" > PDF=306000 MemberID=34 </weight>
<weight id="1647" MUR="1.0" MUF="1.0" PDF="306035" > PDF=306000 MemberID=35 </weight>
<weight id="1648" MUR="1.0" MUF="1.0" PDF="306036" > PDF=306000 MemberID=36 </weight>
<weight id="1649" MUR="1.0" MUF="1.0" PDF="306037" > PDF=306000 MemberID=37 </weight>
<weight id="1650" MUR="1.0" MUF="1.0" PDF="306038" > PDF=306000 MemberID=38 </weight>
<weight id="1651" MUR="1.0" MUF="1.0" PDF="306039" > PDF=306000 MemberID=39 </weight>
<weight id="1652" MUR="1.0" MUF="1.0" PDF="306040" > PDF=306000 MemberID=40 </weight>
<weight id="1653" MUR="1.0" MUF="1.0" PDF="306041" > PDF=306000 MemberID=41 </weight>
<weight id="1654" MUR="1.0" MUF="1.0" PDF="306042" > PDF=306000 MemberID=42 </weight>
<weight id="1655" MUR="1.0" MUF="1.0" PDF="306043" > PDF=306000 MemberID=43 </weight>
<weight id="1656" MUR="1.0" MUF="1.0" PDF="306044" > PDF=306000 MemberID=44 </weight>
<weight id="1657" MUR="1.0" MUF="1.0" PDF="306045" > PDF=306000 MemberID=45 </weight>
<weight id="1658" MUR="1.0" MUF="1.0" PDF="306046" > PDF=306000 MemberID=46 </weight>
<weight id="1659" MUR="1.0" MUF="1.0" PDF="306047" > PDF=306000 MemberID=47 </weight>
<weight id="1660" MUR="1.0" MUF="1.0" PDF="306048" > PDF=306000 MemberID=48 </weight>
<weight id="1661" MUR="1.0" MUF="1.0" PDF="306049" > PDF=306000 MemberID=49 </weight>
<weight id="1662" MUR="1.0" MUF="1.0" PDF="306050" > PDF=306000 MemberID=50 </weight>
<weight id="1663" MUR="1.0" MUF="1.0" PDF="306051" > PDF=306000 MemberID=51 </weight>
<weight id="1664" MUR="1.0" MUF="1.0" PDF="306052" > PDF=306000 MemberID=52 </weight>
<weight id="1665" MUR="1.0" MUF="1.0" PDF="306053" > PDF=306000 MemberID=53 </weight>
<weight id="1666" MUR="1.0" MUF="1.0" PDF="306054" > PDF=306000 MemberID=54 </weight>
<weight id="1667" MUR="1.0" MUF="1.0" PDF="306055" > PDF=306000 MemberID=55 </weight>
<weight id="1668" MUR="1.0" MUF="1.0" PDF="306056" > PDF=306000 MemberID=56 </weight>
<weight id="1669" MUR="1.0" MUF="1.0" PDF="306057" > PDF=306000 MemberID=57 </weight>
<weight id="1670" MUR="1.0" MUF="1.0" PDF="306058" > PDF=306000 MemberID=58 </weight>
<weight id="1671" MUR="1.0" MUF="1.0" PDF="306059" > PDF=306000 MemberID=59 </weight>
<weight id="1672" MUR="1.0" MUF="1.0" PDF="306060" > PDF=306000 MemberID=60 </weight>
<weight id="1673" MUR="1.0" MUF="1.0" PDF="306061" > PDF=306000 MemberID=61 </weight>
<weight id="1674" MUR="1.0" MUF="1.0" PDF="306062" > PDF=306000 MemberID=62 </weight>
<weight id="1675" MUR="1.0" MUF="1.0" PDF="306063" > PDF=306000 MemberID=63 </weight>
<weight id="1676" MUR="1.0" MUF="1.0" PDF="306064" > PDF=306000 MemberID=64 </weight>
<weight id="1677" MUR="1.0" MUF="1.0" PDF="306065" > PDF=306000 MemberID=65 </weight>
<weight id="1678" MUR="1.0" MUF="1.0" PDF="306066" > PDF=306000 MemberID=66 </weight>
<weight id="1679" MUR="1.0" MUF="1.0" PDF="306067" > PDF=306000 MemberID=67 </weight>
<weight id="1680" MUR="1.0" MUF="1.0" PDF="306068" > PDF=306000 MemberID=68 </weight>
<weight id="1681" MUR="1.0" MUF="1.0" PDF="306069" > PDF=306000 MemberID=69 </weight>
<weight id="1682" MUR="1.0" MUF="1.0" PDF="306070" > PDF=306000 MemberID=70 </weight>
<weight id="1683" MUR="1.0" MUF="1.0" PDF="306071" > PDF=306000 MemberID=71 </weight>
<weight id="1684" MUR="1.0" MUF="1.0" PDF="306072" > PDF=306000 MemberID=72 </weight>
<weight id="1685" MUR="1.0" MUF="1.0" PDF="306073" > PDF=306000 MemberID=73 </weight>
<weight id="1686" MUR="1.0" MUF="1.0" PDF="306074" > PDF=306000 MemberID=74 </weight>
<weight id="1687" MUR="1.0" MUF="1.0" PDF="306075" > PDF=306000 MemberID=75 </weight>
<weight id="1688" MUR="1.0" MUF="1.0" PDF="306076" > PDF=306000 MemberID=76 </weight>
<weight id="1689" MUR="1.0" MUF="1.0" PDF="306077" > PDF=306000 MemberID=77 </weight>
<weight id="1690" MUR="1.0" MUF="1.0" PDF="306078" > PDF=306000 MemberID=78 </weight>
<weight id="1691" MUR="1.0" MUF="1.0" PDF="306079" > PDF=306000 MemberID=79 </weight>
<weight id="1692" MUR="1.0" MUF="1.0" PDF="306080" > PDF=306000 MemberID=80 </weight>
<weight id="1693" MUR="1.0" MUF="1.0" PDF="306081" > PDF=306000 MemberID=81 </weight>
<weight id="1694" MUR="1.0" MUF="1.0" PDF="306082" > PDF=306000 MemberID=82 </weight>
<weight id="1695" MUR="1.0" MUF="1.0" PDF="306083" > PDF=306000 MemberID=83 </weight>
<weight id="1696" MUR="1.0" MUF="1.0" PDF="306084" > PDF=306000 MemberID=84 </weight>
<weight id="1697" MUR="1.0" MUF="1.0" PDF="306085" > PDF=306000 MemberID=85 </weight>
<weight id="1698" MUR="1.0" MUF="1.0" PDF="306086" > PDF=306000 MemberID=86 </weight>
<weight id="1699" MUR="1.0" MUF="1.0" PDF="306087" > PDF=306000 MemberID=87 </weight>
<weight id="1700" MUR="1.0" MUF="1.0" PDF="306088" > PDF=306000 MemberID=88 </weight>
<weight id="1701" MUR="1.0" MUF="1.0" PDF="306089" > PDF=306000 MemberID=89 </weight>
<weight id="1702" MUR="1.0" MUF="1.0" PDF="306090" > PDF=306000 MemberID=90 </weight>
<weight id="1703" MUR="1.0" MUF="1.0" PDF="306091" > PDF=306000 MemberID=91 </weight>
<weight id="1704" MUR="1.0" MUF="1.0" PDF="306092" > PDF=306000 MemberID=92 </weight>
<weight id="1705" MUR="1.0" MUF="1.0" PDF="306093" > PDF=306000 MemberID=93 </weight>
<weight id="1706" MUR="1.0" MUF="1.0" PDF="306094" > PDF=306000 MemberID=94 </weight>
<weight id="1707" MUR="1.0" MUF="1.0" PDF="306095" > PDF=306000 MemberID=95 </weight>
<weight id="1708" MUR="1.0" MUF="1.0" PDF="306096" > PDF=306000 MemberID=96 </weight>
<weight id="1709" MUR="1.0" MUF="1.0" PDF="306097" > PDF=306000 MemberID=97 </weight>
<weight id="1710" MUR="1.0" MUF="1.0" PDF="306098" > PDF=306000 MemberID=98 </weight>
<weight id="1711" MUR="1.0" MUF="1.0" PDF="306099" > PDF=306000 MemberID=99 </weight>
<weight id="1712" MUR="1.0" MUF="1.0" PDF="306100" > PDF=306000 MemberID=100 </weight>
<weight id="1713" MUR="1.0" MUF="1.0" PDF="306101" > PDF=306000 MemberID=101 </weight>
<weight id="1714" MUR="1.0" MUF="1.0" PDF="306102" > PDF=306000 MemberID=102 </weight>
</weightgroup> # PDFSET -> PDFSET
<weightgroup name="NNPDF31_nlo_as_0118_nf_4" combine="replicas"> # 320500: NNPDF3.1 NLO global fit, nf=4. mem=0 ; average on replicas; mem=1-100 ; PDF replicas
<weight id="1715" MUR="1.0" MUF="1.0" PDF="320500" > PDF=320500 MemberID=0 </weight>
<weight id="1716" MUR="1.0" MUF="1.0" PDF="320501" > PDF=320500 MemberID=1 </weight>
<weight id="1717" MUR="1.0" MUF="1.0" PDF="320502" > PDF=320500 MemberID=2 </weight>
<weight id="1718" MUR="1.0" MUF="1.0" PDF="320503" > PDF=320500 MemberID=3 </weight>
<weight id="1719" MUR="1.0" MUF="1.0" PDF="320504" > PDF=320500 MemberID=4 </weight>
<weight id="1720" MUR="1.0" MUF="1.0" PDF="320505" > PDF=320500 MemberID=5 </weight>
<weight id="1721" MUR="1.0" MUF="1.0" PDF="320506" > PDF=320500 MemberID=6 </weight>
<weight id="1722" MUR="1.0" MUF="1.0" PDF="320507" > PDF=320500 MemberID=7 </weight>
<weight id="1723" MUR="1.0" MUF="1.0" PDF="320508" > PDF=320500 MemberID=8 </weight>
<weight id="1724" MUR="1.0" MUF="1.0" PDF="320509" > PDF=320500 MemberID=9 </weight>
<weight id="1725" MUR="1.0" MUF="1.0" PDF="320510" > PDF=320500 MemberID=10 </weight>
<weight id="1726" MUR="1.0" MUF="1.0" PDF="320511" > PDF=320500 MemberID=11 </weight>
<weight id="1727" MUR="1.0" MUF="1.0" PDF="320512" > PDF=320500 MemberID=12 </weight>
<weight id="1728" MUR="1.0" MUF="1.0" PDF="320513" > PDF=320500 MemberID=13 </weight>
<weight id="1729" MUR="1.0" MUF="1.0" PDF="320514" > PDF=320500 MemberID=14 </weight>
<weight id="1730" MUR="1.0" MUF="1.0" PDF="320515" > PDF=320500 MemberID=15 </weight>
<weight id="1731" MUR="1.0" MUF="1.0" PDF="320516" > PDF=320500 MemberID=16 </weight>
<weight id="1732" MUR="1.0" MUF="1.0" PDF="320517" > PDF=320500 MemberID=17 </weight>
<weight id="1733" MUR="1.0" MUF="1.0" PDF="320518" > PDF=320500 MemberID=18 </weight>
<weight id="1734" MUR="1.0" MUF="1.0" PDF="320519" > PDF=320500 MemberID=19 </weight>
<weight id="1735" MUR="1.0" MUF="1.0" PDF="320520" > PDF=320500 MemberID=20 </weight>
<weight id="1736" MUR="1.0" MUF="1.0" PDF="320521" > PDF=320500 MemberID=21 </weight>
<weight id="1737" MUR="1.0" MUF="1.0" PDF="320522" > PDF=320500 MemberID=22 </weight>
<weight id="1738" MUR="1.0" MUF="1.0" PDF="320523" > PDF=320500 MemberID=23 </weight>
<weight id="1739" MUR="1.0" MUF="1.0" PDF="320524" > PDF=320500 MemberID=24 </weight>
<weight id="1740" MUR="1.0" MUF="1.0" PDF="320525" > PDF=320500 MemberID=25 </weight>
<weight id="1741" MUR="1.0" MUF="1.0" PDF="320526" > PDF=320500 MemberID=26 </weight>
<weight id="1742" MUR="1.0" MUF="1.0" PDF="320527" > PDF=320500 MemberID=27 </weight>
<weight id="1743" MUR="1.0" MUF="1.0" PDF="320528" > PDF=320500 MemberID=28 </weight>
<weight id="1744" MUR="1.0" MUF="1.0" PDF="320529" > PDF=320500 MemberID=29 </weight>
<weight id="1745" MUR="1.0" MUF="1.0" PDF="320530" > PDF=320500 MemberID=30 </weight>
<weight id="1746" MUR="1.0" MUF="1.0" PDF="320531" > PDF=320500 MemberID=31 </weight>
<weight id="1747" MUR="1.0" MUF="1.0" PDF="320532" > PDF=320500 MemberID=32 </weight>
<weight id="1748" MUR="1.0" MUF="1.0" PDF="320533" > PDF=320500 MemberID=33 </weight>
<weight id="1749" MUR="1.0" MUF="1.0" PDF="320534" > PDF=320500 MemberID=34 </weight>
<weight id="1750" MUR="1.0" MUF="1.0" PDF="320535" > PDF=320500 MemberID=35 </weight>
<weight id="1751" MUR="1.0" MUF="1.0" PDF="320536" > PDF=320500 MemberID=36 </weight>
<weight id="1752" MUR="1.0" MUF="1.0" PDF="320537" > PDF=320500 MemberID=37 </weight>
<weight id="1753" MUR="1.0" MUF="1.0" PDF="320538" > PDF=320500 MemberID=38 </weight>
<weight id="1754" MUR="1.0" MUF="1.0" PDF="320539" > PDF=320500 MemberID=39 </weight>
<weight id="1755" MUR="1.0" MUF="1.0" PDF="320540" > PDF=320500 MemberID=40 </weight>
<weight id="1756" MUR="1.0" MUF="1.0" PDF="320541" > PDF=320500 MemberID=41 </weight>
<weight id="1757" MUR="1.0" MUF="1.0" PDF="320542" > PDF=320500 MemberID=42 </weight>
<weight id="1758" MUR="1.0" MUF="1.0" PDF="320543" > PDF=320500 MemberID=43 </weight>
<weight id="1759" MUR="1.0" MUF="1.0" PDF="320544" > PDF=320500 MemberID=44 </weight>
<weight id="1760" MUR="1.0" MUF="1.0" PDF="320545" > PDF=320500 MemberID=45 </weight>
<weight id="1761" MUR="1.0" MUF="1.0" PDF="320546" > PDF=320500 MemberID=46 </weight>
<weight id="1762" MUR="1.0" MUF="1.0" PDF="320547" > PDF=320500 MemberID=47 </weight>
<weight id="1763" MUR="1.0" MUF="1.0" PDF="320548" > PDF=320500 MemberID=48 </weight>
<weight id="1764" MUR="1.0" MUF="1.0" PDF="320549" > PDF=320500 MemberID=49 </weight>
<weight id="1765" MUR="1.0" MUF="1.0" PDF="320550" > PDF=320500 MemberID=50 </weight>
<weight id="1766" MUR="1.0" MUF="1.0" PDF="320551" > PDF=320500 MemberID=51 </weight>
<weight id="1767" MUR="1.0" MUF="1.0" PDF="320552" > PDF=320500 MemberID=52 </weight>
<weight id="1768" MUR="1.0" MUF="1.0" PDF="320553" > PDF=320500 MemberID=53 </weight>
<weight id="1769" MUR="1.0" MUF="1.0" PDF="320554" > PDF=320500 MemberID=54 </weight>
<weight id="1770" MUR="1.0" MUF="1.0" PDF="320555" > PDF=320500 MemberID=55 </weight>
<weight id="1771" MUR="1.0" MUF="1.0" PDF="320556" > PDF=320500 MemberID=56 </weight>
<weight id="1772" MUR="1.0" MUF="1.0" PDF="320557" > PDF=320500 MemberID=57 </weight>
<weight id="1773" MUR="1.0" MUF="1.0" PDF="320558" > PDF=320500 MemberID=58 </weight>
<weight id="1774" MUR="1.0" MUF="1.0" PDF="320559" > PDF=320500 MemberID=59 </weight>
<weight id="1775" MUR="1.0" MUF="1.0" PDF="320560" > PDF=320500 MemberID=60 </weight>
<weight id="1776" MUR="1.0" MUF="1.0" PDF="320561" > PDF=320500 MemberID=61 </weight>
<weight id="1777" MUR="1.0" MUF="1.0" PDF="320562" > PDF=320500 MemberID=62 </weight>
<weight id="1778" MUR="1.0" MUF="1.0" PDF="320563" > PDF=320500 MemberID=63 </weight>
<weight id="1779" MUR="1.0" MUF="1.0" PDF="320564" > PDF=320500 MemberID=64 </weight>
<weight id="1780" MUR="1.0" MUF="1.0" PDF="320565" > PDF=320500 MemberID=65 </weight>
<weight id="1781" MUR="1.0" MUF="1.0" PDF="320566" > PDF=320500 MemberID=66 </weight>
<weight id="1782" MUR="1.0" MUF="1.0" PDF="320567" > PDF=320500 MemberID=67 </weight>
<weight id="1783" MUR="1.0" MUF="1.0" PDF="320568" > PDF=320500 MemberID=68 </weight>
<weight id="1784" MUR="1.0" MUF="1.0" PDF="320569" > PDF=320500 MemberID=69 </weight>
<weight id="1785" MUR="1.0" MUF="1.0" PDF="320570" > PDF=320500 MemberID=70 </weight>
<weight id="1786" MUR="1.0" MUF="1.0" PDF="320571" > PDF=320500 MemberID=71 </weight>
<weight id="1787" MUR="1.0" MUF="1.0" PDF="320572" > PDF=320500 MemberID=72 </weight>
<weight id="1788" MUR="1.0" MUF="1.0" PDF="320573" > PDF=320500 MemberID=73 </weight>
<weight id="1789" MUR="1.0" MUF="1.0" PDF="320574" > PDF=320500 MemberID=74 </weight>
<weight id="1790" MUR="1.0" MUF="1.0" PDF="320575" > PDF=320500 MemberID=75 </weight>
<weight id="1791" MUR="1.0" MUF="1.0" PDF="320576" > PDF=320500 MemberID=76 </weight>
<weight id="1792" MUR="1.0" MUF="1.0" PDF="320577" > PDF=320500 MemberID=77 </weight>
<weight id="1793" MUR="1.0" MUF="1.0" PDF="320578" > PDF=320500 MemberID=78 </weight>
<weight id="1794" MUR="1.0" MUF="1.0" PDF="320579" > PDF=320500 MemberID=79 </weight>
<weight id="1795" MUR="1.0" MUF="1.0" PDF="320580" > PDF=320500 MemberID=80 </weight>
<weight id="1796" MUR="1.0" MUF="1.0" PDF="320581" > PDF=320500 MemberID=81 </weight>
<weight id="1797" MUR="1.0" MUF="1.0" PDF="320582" > PDF=320500 MemberID=82 </weight>
<weight id="1798" MUR="1.0" MUF="1.0" PDF="320583" > PDF=320500 MemberID=83 </weight>
<weight id="1799" MUR="1.0" MUF="1.0" PDF="320584" > PDF=320500 MemberID=84 </weight>
<weight id="1800" MUR="1.0" MUF="1.0" PDF="320585" > PDF=320500 MemberID=85 </weight>
<weight id="1801" MUR="1.0" MUF="1.0" PDF="320586" > PDF=320500 MemberID=86 </weight>
<weight id="1802" MUR="1.0" MUF="1.0" PDF="320587" > PDF=320500 MemberID=87 </weight>
<weight id="1803" MUR="1.0" MUF="1.0" PDF="320588" > PDF=320500 MemberID=88 </weight>
<weight id="1804" MUR="1.0" MUF="1.0" PDF="320589" > PDF=320500 MemberID=89 </weight>
<weight id="1805" MUR="1.0" MUF="1.0" PDF="320590" > PDF=320500 MemberID=90 </weight>
<weight id="1806" MUR="1.0" MUF="1.0" PDF="320591" > PDF=320500 MemberID=91 </weight>
<weight id="1807" MUR="1.0" MUF="1.0" PDF="320592" > PDF=320500 MemberID=92 </weight>
<weight id="1808" MUR="1.0" MUF="1.0" PDF="320593" > PDF=320500 MemberID=93 </weight>
<weight id="1809" MUR="1.0" MUF="1.0" PDF="320594" > PDF=320500 MemberID=94 </weight>
<weight id="1810" MUR="1.0" MUF="1.0" PDF="320595" > PDF=320500 MemberID=95 </weight>
<weight id="1811" MUR="1.0" MUF="1.0" PDF="320596" > PDF=320500 MemberID=96 </weight>
<weight id="1812" MUR="1.0" MUF="1.0" PDF="320597" > PDF=320500 MemberID=97 </weight>
<weight id="1813" MUR="1.0" MUF="1.0" PDF="320598" > PDF=320500 MemberID=98 </weight>
<weight id="1814" MUR="1.0" MUF="1.0" PDF="320599" > PDF=320500 MemberID=99 </weight>
<weight id="1815" MUR="1.0" MUF="1.0" PDF="320600" > PDF=320500 MemberID=100 </weight>
</weightgroup> # PDFSET -> PDFSET
<weightgroup name="NNPDF30_nlo_as_0118_nf_4" combine="replicas"> # 260400: NNPDF3.0 NLO global fit, alphas(mb)=0.22278. mem=0 ; average on replicas; mem=1-100 ; PDF replicas
<weight id="1816" MUR="1.0" MUF="1.0" PDF="260400" > PDF=260400 MemberID=0 </weight>
<weight id="1817" MUR="1.0" MUF="1.0" PDF="260401" > PDF=260400 MemberID=1 </weight>
<weight id="1818" MUR="1.0" MUF="1.0" PDF="260402" > PDF=260400 MemberID=2 </weight>
<weight id="1819" MUR="1.0" MUF="1.0" PDF="260403" > PDF=260400 MemberID=3 </weight>
<weight id="1820" MUR="1.0" MUF="1.0" PDF="260404" > PDF=260400 MemberID=4 </weight>
<weight id="1821" MUR="1.0" MUF="1.0" PDF="260405" > PDF=260400 MemberID=5 </weight>
<weight id="1822" MUR="1.0" MUF="1.0" PDF="260406" > PDF=260400 MemberID=6 </weight>
<weight id="1823" MUR="1.0" MUF="1.0" PDF="260407" > PDF=260400 MemberID=7 </weight>
<weight id="1824" MUR="1.0" MUF="1.0" PDF="260408" > PDF=260400 MemberID=8 </weight>
<weight id="1825" MUR="1.0" MUF="1.0" PDF="260409" > PDF=260400 MemberID=9 </weight>
<weight id="1826" MUR="1.0" MUF="1.0" PDF="260410" > PDF=260400 MemberID=10 </weight>
<weight id="1827" MUR="1.0" MUF="1.0" PDF="260411" > PDF=260400 MemberID=11 </weight>
<weight id="1828" MUR="1.0" MUF="1.0" PDF="260412" > PDF=260400 MemberID=12 </weight>
<weight id="1829" MUR="1.0" MUF="1.0" PDF="260413" > PDF=260400 MemberID=13 </weight>
<weight id="1830" MUR="1.0" MUF="1.0" PDF="260414" > PDF=260400 MemberID=14 </weight>
<weight id="1831" MUR="1.0" MUF="1.0" PDF="260415" > PDF=260400 MemberID=15 </weight>
<weight id="1832" MUR="1.0" MUF="1.0" PDF="260416" > PDF=260400 MemberID=16 </weight>
<weight id="1833" MUR="1.0" MUF="1.0" PDF="260417" > PDF=260400 MemberID=17 </weight>
<weight id="1834" MUR="1.0" MUF="1.0" PDF="260418" > PDF=260400 MemberID=18 </weight>
<weight id="1835" MUR="1.0" MUF="1.0" PDF="260419" > PDF=260400 MemberID=19 </weight>
<weight id="1836" MUR="1.0" MUF="1.0" PDF="260420" > PDF=260400 MemberID=20 </weight>
<weight id="1837" MUR="1.0" MUF="1.0" PDF="260421" > PDF=260400 MemberID=21 </weight>
<weight id="1838" MUR="1.0" MUF="1.0" PDF="260422" > PDF=260400 MemberID=22 </weight>
<weight id="1839" MUR="1.0" MUF="1.0" PDF="260423" > PDF=260400 MemberID=23 </weight>
<weight id="1840" MUR="1.0" MUF="1.0" PDF="260424" > PDF=260400 MemberID=24 </weight>
<weight id="1841" MUR="1.0" MUF="1.0" PDF="260425" > PDF=260400 MemberID=25 </weight>
<weight id="1842" MUR="1.0" MUF="1.0" PDF="260426" > PDF=260400 MemberID=26 </weight>
<weight id="1843" MUR="1.0" MUF="1.0" PDF="260427" > PDF=260400 MemberID=27 </weight>
<weight id="1844" MUR="1.0" MUF="1.0" PDF="260428" > PDF=260400 MemberID=28 </weight>
<weight id="1845" MUR="1.0" MUF="1.0" PDF="260429" > PDF=260400 MemberID=29 </weight>
<weight id="1846" MUR="1.0" MUF="1.0" PDF="260430" > PDF=260400 MemberID=30 </weight>
<weight id="1847" MUR="1.0" MUF="1.0" PDF="260431" > PDF=260400 MemberID=31 </weight>
<weight id="1848" MUR="1.0" MUF="1.0" PDF="260432" > PDF=260400 MemberID=32 </weight>
<weight id="1849" MUR="1.0" MUF="1.0" PDF="260433" > PDF=260400 MemberID=33 </weight>
<weight id="1850" MUR="1.0" MUF="1.0" PDF="260434" > PDF=260400 MemberID=34 </weight>
<weight id="1851" MUR="1.0" MUF="1.0" PDF="260435" > PDF=260400 MemberID=35 </weight>
<weight id="1852" MUR="1.0" MUF="1.0" PDF="260436" > PDF=260400 MemberID=36 </weight>
<weight id="1853" MUR="1.0" MUF="1.0" PDF="260437" > PDF=260400 MemberID=37 </weight>
<weight id="1854" MUR="1.0" MUF="1.0" PDF="260438" > PDF=260400 MemberID=38 </weight>
<weight id="1855" MUR="1.0" MUF="1.0" PDF="260439" > PDF=260400 MemberID=39 </weight>
<weight id="1856" MUR="1.0" MUF="1.0" PDF="260440" > PDF=260400 MemberID=40 </weight>
<weight id="1857" MUR="1.0" MUF="1.0" PDF="260441" > PDF=260400 MemberID=41 </weight>
<weight id="1858" MUR="1.0" MUF="1.0" PDF="260442" > PDF=260400 MemberID=42 </weight>
<weight id="1859" MUR="1.0" MUF="1.0" PDF="260443" > PDF=260400 MemberID=43 </weight>
<weight id="1860" MUR="1.0" MUF="1.0" PDF="260444" > PDF=260400 MemberID=44 </weight>
<weight id="1861" MUR="1.0" MUF="1.0" PDF="260445" > PDF=260400 MemberID=45 </weight>
<weight id="1862" MUR="1.0" MUF="1.0" PDF="260446" > PDF=260400 MemberID=46 </weight>
<weight id="1863" MUR="1.0" MUF="1.0" PDF="260447" > PDF=260400 MemberID=47 </weight>
<weight id="1864" MUR="1.0" MUF="1.0" PDF="260448" > PDF=260400 MemberID=48 </weight>
<weight id="1865" MUR="1.0" MUF="1.0" PDF="260449" > PDF=260400 MemberID=49 </weight>
<weight id="1866" MUR="1.0" MUF="1.0" PDF="260450" > PDF=260400 MemberID=50 </weight>
<weight id="1867" MUR="1.0" MUF="1.0" PDF="260451" > PDF=260400 MemberID=51 </weight>
<weight id="1868" MUR="1.0" MUF="1.0" PDF="260452" > PDF=260400 MemberID=52 </weight>
<weight id="1869" MUR="1.0" MUF="1.0" PDF="260453" > PDF=260400 MemberID=53 </weight>
<weight id="1870" MUR="1.0" MUF="1.0" PDF="260454" > PDF=260400 MemberID=54 </weight>
<weight id="1871" MUR="1.0" MUF="1.0" PDF="260455" > PDF=260400 MemberID=55 </weight>
<weight id="1872" MUR="1.0" MUF="1.0" PDF="260456" > PDF=260400 MemberID=56 </weight>
<weight id="1873" MUR="1.0" MUF="1.0" PDF="260457" > PDF=260400 MemberID=57 </weight>
<weight id="1874" MUR="1.0" MUF="1.0" PDF="260458" > PDF=260400 MemberID=58 </weight>
<weight id="1875" MUR="1.0" MUF="1.0" PDF="260459" > PDF=260400 MemberID=59 </weight>
<weight id="1876" MUR="1.0" MUF="1.0" PDF="260460" > PDF=260400 MemberID=60 </weight>
<weight id="1877" MUR="1.0" MUF="1.0" PDF="260461" > PDF=260400 MemberID=61 </weight>
<weight id="1878" MUR="1.0" MUF="1.0" PDF="260462" > PDF=260400 MemberID=62 </weight>
<weight id="1879" MUR="1.0" MUF="1.0" PDF="260463" > PDF=260400 MemberID=63 </weight>
<weight id="1880" MUR="1.0" MUF="1.0" PDF="260464" > PDF=260400 MemberID=64 </weight>
<weight id="1881" MUR="1.0" MUF="1.0" PDF="260465" > PDF=260400 MemberID=65 </weight>
<weight id="1882" MUR="1.0" MUF="1.0" PDF="260466" > PDF=260400 MemberID=66 </weight>
<weight id="1883" MUR="1.0" MUF="1.0" PDF="260467" > PDF=260400 MemberID=67 </weight>
<weight id="1884" MUR="1.0" MUF="1.0" PDF="260468" > PDF=260400 MemberID=68 </weight>
<weight id="1885" MUR="1.0" MUF="1.0" PDF="260469" > PDF=260400 MemberID=69 </weight>
<weight id="1886" MUR="1.0" MUF="1.0" PDF="260470" > PDF=260400 MemberID=70 </weight>
<weight id="1887" MUR="1.0" MUF="1.0" PDF="260471" > PDF=260400 MemberID=71 </weight>
<weight id="1888" MUR="1.0" MUF="1.0" PDF="260472" > PDF=260400 MemberID=72 </weight>
<weight id="1889" MUR="1.0" MUF="1.0" PDF="260473" > PDF=260400 MemberID=73 </weight>
<weight id="1890" MUR="1.0" MUF="1.0" PDF="260474" > PDF=260400 MemberID=74 </weight>
<weight id="1891" MUR="1.0" MUF="1.0" PDF="260475" > PDF=260400 MemberID=75 </weight>
<weight id="1892" MUR="1.0" MUF="1.0" PDF="260476" > PDF=260400 MemberID=76 </weight>
<weight id="1893" MUR="1.0" MUF="1.0" PDF="260477" > PDF=260400 MemberID=77 </weight>
<weight id="1894" MUR="1.0" MUF="1.0" PDF="260478" > PDF=260400 MemberID=78 </weight>
<weight id="1895" MUR="1.0" MUF="1.0" PDF="260479" > PDF=260400 MemberID=79 </weight>
<weight id="1896" MUR="1.0" MUF="1.0" PDF="260480" > PDF=260400 MemberID=80 </weight>
<weight id="1897" MUR="1.0" MUF="1.0" PDF="260481" > PDF=260400 MemberID=81 </weight>
<weight id="1898" MUR="1.0" MUF="1.0" PDF="260482" > PDF=260400 MemberID=82 </weight>
<weight id="1899" MUR="1.0" MUF="1.0" PDF="260483" > PDF=260400 MemberID=83 </weight>
<weight id="1900" MUR="1.0" MUF="1.0" PDF="260484" > PDF=260400 MemberID=84 </weight>
<weight id="1901" MUR="1.0" MUF="1.0" PDF="260485" > PDF=260400 MemberID=85 </weight>
<weight id="1902" MUR="1.0" MUF="1.0" PDF="260486" > PDF=260400 MemberID=86 </weight>
<weight id="1903" MUR="1.0" MUF="1.0" PDF="260487" > PDF=260400 MemberID=87 </weight>
<weight id="1904" MUR="1.0" MUF="1.0" PDF="260488" > PDF=260400 MemberID=88 </weight>
<weight id="1905" MUR="1.0" MUF="1.0" PDF="260489" > PDF=260400 MemberID=89 </weight>
<weight id="1906" MUR="1.0" MUF="1.0" PDF="260490" > PDF=260400 MemberID=90 </weight>
<weight id="1907" MUR="1.0" MUF="1.0" PDF="260491" > PDF=260400 MemberID=91 </weight>
<weight id="1908" MUR="1.0" MUF="1.0" PDF="260492" > PDF=260400 MemberID=92 </weight>
<weight id="1909" MUR="1.0" MUF="1.0" PDF="260493" > PDF=260400 MemberID=93 </weight>
<weight id="1910" MUR="1.0" MUF="1.0" PDF="260494" > PDF=260400 MemberID=94 </weight>
<weight id="1911" MUR="1.0" MUF="1.0" PDF="260495" > PDF=260400 MemberID=95 </weight>
<weight id="1912" MUR="1.0" MUF="1.0" PDF="260496" > PDF=260400 MemberID=96 </weight>
<weight id="1913" MUR="1.0" MUF="1.0" PDF="260497" > PDF=260400 MemberID=97 </weight>
<weight id="1914" MUR="1.0" MUF="1.0" PDF="260498" > PDF=260400 MemberID=98 </weight>
<weight id="1915" MUR="1.0" MUF="1.0" PDF="260499" > PDF=260400 MemberID=99 </weight>
<weight id="1916" MUR="1.0" MUF="1.0" PDF="260500" > PDF=260400 MemberID=100 </weight>
</weightgroup> # PDFSET -> PDF
<weight id="1917" MUR="1.0" MUF="1.0" PDF="262400" > PDF=262400 MemberID=0 </weight>
<weight id="1918" MUR="1.0" MUF="1.0" PDF="263400" > PDF=263400 MemberID=0 </weight>
<weightgroup name="NNPDF30_nlo_nf_4_pdfas" combine="replicas+as"> # 292000: NNPDF3.0 NLO global fit; mem=0 to mem=100 with alphas(MZ)=0.118, mem=0 ; average on replicas 1-100; mem=1-100 ; PDF replicas with  alphas(MZ)=0.118; mem=101 ; central value for alphas=0.117; mem=102 ; central value for alphas=0.119; maximum number of active flavors NF=4
<weight id="1919" MUR="1.0" MUF="1.0" PDF="292000" > PDF=292000 MemberID=0 </weight>
<weight id="1920" MUR="1.0" MUF="1.0" PDF="292001" > PDF=292000 MemberID=1 </weight>
<weight id="1921" MUR="1.0" MUF="1.0" PDF="292002" > PDF=292000 MemberID=2 </weight>
<weight id="1922" MUR="1.0" MUF="1.0" PDF="292003" > PDF=292000 MemberID=3 </weight>
<weight id="1923" MUR="1.0" MUF="1.0" PDF="292004" > PDF=292000 MemberID=4 </weight>
<weight id="1924" MUR="1.0" MUF="1.0" PDF="292005" > PDF=292000 MemberID=5 </weight>
<weight id="1925" MUR="1.0" MUF="1.0" PDF="292006" > PDF=292000 MemberID=6 </weight>
<weight id="1926" MUR="1.0" MUF="1.0" PDF="292007" > PDF=292000 MemberID=7 </weight>
<weight id="1927" MUR="1.0" MUF="1.0" PDF="292008" > PDF=292000 MemberID=8 </weight>
<weight id="1928" MUR="1.0" MUF="1.0" PDF="292009" > PDF=292000 MemberID=9 </weight>
<weight id="1929" MUR="1.0" MUF="1.0" PDF="292010" > PDF=292000 MemberID=10 </weight>
<weight id="1930" MUR="1.0" MUF="1.0" PDF="292011" > PDF=292000 MemberID=11 </weight>
<weight id="1931" MUR="1.0" MUF="1.0" PDF="292012" > PDF=292000 MemberID=12 </weight>
<weight id="1932" MUR="1.0" MUF="1.0" PDF="292013" > PDF=292000 MemberID=13 </weight>
<weight id="1933" MUR="1.0" MUF="1.0" PDF="292014" > PDF=292000 MemberID=14 </weight>
<weight id="1934" MUR="1.0" MUF="1.0" PDF="292015" > PDF=292000 MemberID=15 </weight>
<weight id="1935" MUR="1.0" MUF="1.0" PDF="292016" > PDF=292000 MemberID=16 </weight>
<weight id="1936" MUR="1.0" MUF="1.0" PDF="292017" > PDF=292000 MemberID=17 </weight>
<weight id="1937" MUR="1.0" MUF="1.0" PDF="292018" > PDF=292000 MemberID=18 </weight>
<weight id="1938" MUR="1.0" MUF="1.0" PDF="292019" > PDF=292000 MemberID=19 </weight>
<weight id="1939" MUR="1.0" MUF="1.0" PDF="292020" > PDF=292000 MemberID=20 </weight>
<weight id="1940" MUR="1.0" MUF="1.0" PDF="292021" > PDF=292000 MemberID=21 </weight>
<weight id="1941" MUR="1.0" MUF="1.0" PDF="292022" > PDF=292000 MemberID=22 </weight>
<weight id="1942" MUR="1.0" MUF="1.0" PDF="292023" > PDF=292000 MemberID=23 </weight>
<weight id="1943" MUR="1.0" MUF="1.0" PDF="292024" > PDF=292000 MemberID=24 </weight>
<weight id="1944" MUR="1.0" MUF="1.0" PDF="292025" > PDF=292000 MemberID=25 </weight>
<weight id="1945" MUR="1.0" MUF="1.0" PDF="292026" > PDF=292000 MemberID=26 </weight>
<weight id="1946" MUR="1.0" MUF="1.0" PDF="292027" > PDF=292000 MemberID=27 </weight>
<weight id="1947" MUR="1.0" MUF="1.0" PDF="292028" > PDF=292000 MemberID=28 </weight>
<weight id="1948" MUR="1.0" MUF="1.0" PDF="292029" > PDF=292000 MemberID=29 </weight>
<weight id="1949" MUR="1.0" MUF="1.0" PDF="292030" > PDF=292000 MemberID=30 </weight>
<weight id="1950" MUR="1.0" MUF="1.0" PDF="292031" > PDF=292000 MemberID=31 </weight>
<weight id="1951" MUR="1.0" MUF="1.0" PDF="292032" > PDF=292000 MemberID=32 </weight>
<weight id="1952" MUR="1.0" MUF="1.0" PDF="292033" > PDF=292000 MemberID=33 </weight>
<weight id="1953" MUR="1.0" MUF="1.0" PDF="292034" > PDF=292000 MemberID=34 </weight>
<weight id="1954" MUR="1.0" MUF="1.0" PDF="292035" > PDF=292000 MemberID=35 </weight>
<weight id="1955" MUR="1.0" MUF="1.0" PDF="292036" > PDF=292000 MemberID=36 </weight>
<weight id="1956" MUR="1.0" MUF="1.0" PDF="292037" > PDF=292000 MemberID=37 </weight>
<weight id="1957" MUR="1.0" MUF="1.0" PDF="292038" > PDF=292000 MemberID=38 </weight>
<weight id="1958" MUR="1.0" MUF="1.0" PDF="292039" > PDF=292000 MemberID=39 </weight>
<weight id="1959" MUR="1.0" MUF="1.0" PDF="292040" > PDF=292000 MemberID=40 </weight>
<weight id="1960" MUR="1.0" MUF="1.0" PDF="292041" > PDF=292000 MemberID=41 </weight>
<weight id="1961" MUR="1.0" MUF="1.0" PDF="292042" > PDF=292000 MemberID=42 </weight>
<weight id="1962" MUR="1.0" MUF="1.0" PDF="292043" > PDF=292000 MemberID=43 </weight>
<weight id="1963" MUR="1.0" MUF="1.0" PDF="292044" > PDF=292000 MemberID=44 </weight>
<weight id="1964" MUR="1.0" MUF="1.0" PDF="292045" > PDF=292000 MemberID=45 </weight>
<weight id="1965" MUR="1.0" MUF="1.0" PDF="292046" > PDF=292000 MemberID=46 </weight>
<weight id="1966" MUR="1.0" MUF="1.0" PDF="292047" > PDF=292000 MemberID=47 </weight>
<weight id="1967" MUR="1.0" MUF="1.0" PDF="292048" > PDF=292000 MemberID=48 </weight>
<weight id="1968" MUR="1.0" MUF="1.0" PDF="292049" > PDF=292000 MemberID=49 </weight>
<weight id="1969" MUR="1.0" MUF="1.0" PDF="292050" > PDF=292000 MemberID=50 </weight>
<weight id="1970" MUR="1.0" MUF="1.0" PDF="292051" > PDF=292000 MemberID=51 </weight>
<weight id="1971" MUR="1.0" MUF="1.0" PDF="292052" > PDF=292000 MemberID=52 </weight>
<weight id="1972" MUR="1.0" MUF="1.0" PDF="292053" > PDF=292000 MemberID=53 </weight>
<weight id="1973" MUR="1.0" MUF="1.0" PDF="292054" > PDF=292000 MemberID=54 </weight>
<weight id="1974" MUR="1.0" MUF="1.0" PDF="292055" > PDF=292000 MemberID=55 </weight>
<weight id="1975" MUR="1.0" MUF="1.0" PDF="292056" > PDF=292000 MemberID=56 </weight>
<weight id="1976" MUR="1.0" MUF="1.0" PDF="292057" > PDF=292000 MemberID=57 </weight>
<weight id="1977" MUR="1.0" MUF="1.0" PDF="292058" > PDF=292000 MemberID=58 </weight>
<weight id="1978" MUR="1.0" MUF="1.0" PDF="292059" > PDF=292000 MemberID=59 </weight>
<weight id="1979" MUR="1.0" MUF="1.0" PDF="292060" > PDF=292000 MemberID=60 </weight>
<weight id="1980" MUR="1.0" MUF="1.0" PDF="292061" > PDF=292000 MemberID=61 </weight>
<weight id="1981" MUR="1.0" MUF="1.0" PDF="292062" > PDF=292000 MemberID=62 </weight>
<weight id="1982" MUR="1.0" MUF="1.0" PDF="292063" > PDF=292000 MemberID=63 </weight>
<weight id="1983" MUR="1.0" MUF="1.0" PDF="292064" > PDF=292000 MemberID=64 </weight>
<weight id="1984" MUR="1.0" MUF="1.0" PDF="292065" > PDF=292000 MemberID=65 </weight>
<weight id="1985" MUR="1.0" MUF="1.0" PDF="292066" > PDF=292000 MemberID=66 </weight>
<weight id="1986" MUR="1.0" MUF="1.0" PDF="292067" > PDF=292000 MemberID=67 </weight>
<weight id="1987" MUR="1.0" MUF="1.0" PDF="292068" > PDF=292000 MemberID=68 </weight>
<weight id="1988" MUR="1.0" MUF="1.0" PDF="292069" > PDF=292000 MemberID=69 </weight>
<weight id="1989" MUR="1.0" MUF="1.0" PDF="292070" > PDF=292000 MemberID=70 </weight>
<weight id="1990" MUR="1.0" MUF="1.0" PDF="292071" > PDF=292000 MemberID=71 </weight>
<weight id="1991" MUR="1.0" MUF="1.0" PDF="292072" > PDF=292000 MemberID=72 </weight>
<weight id="1992" MUR="1.0" MUF="1.0" PDF="292073" > PDF=292000 MemberID=73 </weight>
<weight id="1993" MUR="1.0" MUF="1.0" PDF="292074" > PDF=292000 MemberID=74 </weight>
<weight id="1994" MUR="1.0" MUF="1.0" PDF="292075" > PDF=292000 MemberID=75 </weight>
<weight id="1995" MUR="1.0" MUF="1.0" PDF="292076" > PDF=292000 MemberID=76 </weight>
<weight id="1996" MUR="1.0" MUF="1.0" PDF="292077" > PDF=292000 MemberID=77 </weight>
<weight id="1997" MUR="1.0" MUF="1.0" PDF="292078" > PDF=292000 MemberID=78 </weight>
<weight id="1998" MUR="1.0" MUF="1.0" PDF="292079" > PDF=292000 MemberID=79 </weight>
<weight id="1999" MUR="1.0" MUF="1.0" PDF="292080" > PDF=292000 MemberID=80 </weight>
<weight id="2000" MUR="1.0" MUF="1.0" PDF="292081" > PDF=292000 MemberID=81 </weight>
<weight id="2001" MUR="1.0" MUF="1.0" PDF="292082" > PDF=292000 MemberID=82 </weight>
<weight id="2002" MUR="1.0" MUF="1.0" PDF="292083" > PDF=292000 MemberID=83 </weight>
<weight id="2003" MUR="1.0" MUF="1.0" PDF="292084" > PDF=292000 MemberID=84 </weight>
<weight id="2004" MUR="1.0" MUF="1.0" PDF="292085" > PDF=292000 MemberID=85 </weight>
<weight id="2005" MUR="1.0" MUF="1.0" PDF="292086" > PDF=292000 MemberID=86 </weight>
<weight id="2006" MUR="1.0" MUF="1.0" PDF="292087" > PDF=292000 MemberID=87 </weight>
<weight id="2007" MUR="1.0" MUF="1.0" PDF="292088" > PDF=292000 MemberID=88 </weight>
<weight id="2008" MUR="1.0" MUF="1.0" PDF="292089" > PDF=292000 MemberID=89 </weight>
<weight id="2009" MUR="1.0" MUF="1.0" PDF="292090" > PDF=292000 MemberID=90 </weight>
<weight id="2010" MUR="1.0" MUF="1.0" PDF="292091" > PDF=292000 MemberID=91 </weight>
<weight id="2011" MUR="1.0" MUF="1.0" PDF="292092" > PDF=292000 MemberID=92 </weight>
<weight id="2012" MUR="1.0" MUF="1.0" PDF="292093" > PDF=292000 MemberID=93 </weight>
<weight id="2013" MUR="1.0" MUF="1.0" PDF="292094" > PDF=292000 MemberID=94 </weight>
<weight id="2014" MUR="1.0" MUF="1.0" PDF="292095" > PDF=292000 MemberID=95 </weight>
<weight id="2015" MUR="1.0" MUF="1.0" PDF="292096" > PDF=292000 MemberID=96 </weight>
<weight id="2016" MUR="1.0" MUF="1.0" PDF="292097" > PDF=292000 MemberID=97 </weight>
<weight id="2017" MUR="1.0" MUF="1.0" PDF="292098" > PDF=292000 MemberID=98 </weight>
<weight id="2018" MUR="1.0" MUF="1.0" PDF="292099" > PDF=292000 MemberID=99 </weight>
<weight id="2019" MUR="1.0" MUF="1.0" PDF="292100" > PDF=292000 MemberID=100 </weight>
<weight id="2020" MUR="1.0" MUF="1.0" PDF="292101" > PDF=292000 MemberID=101 </weight>
<weight id="2021" MUR="1.0" MUF="1.0" PDF="292102" > PDF=292000 MemberID=102 </weight>
</weightgroup> # PDFSET -> PDF
<weight id="2022" MUR="1.0" MUF="1.0" PDF="292400" > PDF=292400 MemberID=0 </weight>
</initrwgt>
<MGGenerationInfo>
#  Number of Events        :       5
#  Integrated weight (pb)  :       1.325e+15
</MGGenerationInfo>
</header>
<init>
2212 2212 6.500000e+03 6.500000e+03 0 0 325500 325500 -4 1
1.325000e+15 2.077900e+13 1.325000e+15 1
<generator name='MadGraph5_aMC@NLO' version='2.6.5'>please cite 1405.0301 </generator>
</init>
<event>
 9      1 +1.3250000e+15 1.00000100e+03 7.81738600e-03 8.18908800e-02
       21 -1    0    0  502  501 +0.0000000000e+00 +0.0000000000e+00 +6.8281178033e+02 6.8281178033e+02 0.0000000000e+00 0.0000e+00 -1.0000e+00
       21 -1    0    0  501  502 -0.0000000000e+00 -0.0000000000e+00 -3.6613381087e+02 3.6613381087e+02 0.0000000000e+00 0.0000e+00 -1.0000e+00
       45  2    1    2    0    0 +0.0000000000e+00 -5.6843418861e-14 +3.1667796946e+02 1.0489455912e+03 1.0000009585e+03 0.0000e+00 0.0000e+00
       25  2    3    3    0    0 +3.3786360420e+02 +2.6443885098e+02 -8.2519047846e+01 4.5443912412e+02 1.2500321323e+02 0.0000e+00 0.0000e+00
       35  2    3    3    0    0 -3.3786360420e+02 -2.6443885098e+02 +3.9919701730e+02 5.9450646708e+02 9.9999799128e+01 0.0000e+00 0.0000e+00
       22  1    5    5    0    0 -1.7299580892e+02 -7.8094172652e+01 +2.0052882551e+02 2.7611240387e+02 0.0000000000e+00 0.0000e+00 -1.0000e+00
       22  1    5    5    0    0 -1.6486779528e+02 -1.8634467833e+02 +1.9866819179e+02 3.1839406321e+02 0.0000000000e+00 0.0000e+00 -1.0000e+00
      -15  1    4    4    0    0 +6.1666829369e+01 +3.8267495785e+01 -6.4310973520e+01 9.6985865579e+01 1.7770000000e+00 0.0000e+00 -1.0000e+00
       15  1    4    4    0    0 +2.7619677483e+02 +2.2617135519e+02 -1.8208074326e+01 3.5745325854e+02 1.7770000000e+00 0.0000e+00 -1.0000e+00
<mgrwt>
<rscale>  0 0.10000010E+04</rscale>
<asrwt>0</asrwt>
<pdfrwt beam="1">  1       21 0.10504797E+00 0.10000010E+04</pdfrwt>
<pdfrwt beam="2">  1       21 0.56328279E-01 0.10000010E+04</pdfrwt>
<totfact> 0.19970570E+03</totfact>
</mgrwt>
<rwgt>
<wgt id='1001'> +1.3250000e+15 </wgt>
<wgt id='1002'> +1.3509595e+15 </wgt>
<wgt id='1003'> +1.3509575e+15 </wgt>
<wgt id='1004'> +1.4895079e+15 </wgt>
<wgt id='1005'> +1.3250000e+15 </wgt>
<wgt id='1006'> +1.3250000e+15 </wgt>
<wgt id='1007'> +1.3509595e+15 </wgt>
<wgt id='1008'> +1.3509575e+15 </wgt>
<wgt id='1009'> +1.4895079e+15 </wgt>
<wgt id='1010'> +1.3250000e+15 </wgt>
<wgt id='1011'> +1.3250000e+15 </wgt>
<wgt id='1012'> +1.3509595e+15 </wgt>
<wgt id='1013'> +1.3509575e+15 </wgt>
<wgt id='1014'> +1.4895079e+15 </wgt>
<wgt id='1015'> +1.3250000e+15 </wgt>
<wgt id='1016'> +1.2094910e+15 </wgt>
<wgt id='1017'> +1.2317672e+15 </wgt>
<wgt id='1018'> +1.2317655e+15 </wgt>
<wgt id='1019'> +1.3509575e+15 </wgt>
<wgt id='1020'> +1.2094910e+15 </wgt>
<wgt id='1021'> +1.2094910e+15 </wgt>
<wgt id='1022'> +1.2317672e+15 </wgt>
<wgt id='1023'> +1.2317655e+15 </wgt>
<wgt id='1024'> +1.3509575e+15 </wgt>
<wgt id='1025'> +1.2094910e+15 </wgt>
<wgt id='1026'> +1.2094910e+15 </wgt>
<wgt id='1027'> +1.2317672e+15 </wgt>
<wgt id='1028'> +1.2317655e+15 </wgt>
<wgt id='1029'> +1.3509575e+15 </wgt>
<wgt id='1030'> +1.2094910e+15 </wgt>
<wgt id='1031'> +1.4595030e+15 </wgt>
<wgt id='1032'> +1.4895103e+15 </wgt>
<wgt id='1033'> +1.4895079e+15 </wgt>
<wgt id='1034'> +1.6516340e+15 </wgt>
<wgt id='1035'> +1.4595030e+15 </wgt>
<wgt id='1036'> +1.4595030e+15 </wgt>
<wgt id='1037'> +1.4895103e+15 </wgt>
<wgt id='1038'> +1.4895079e+15 </wgt>
<wgt id='1039'> +1.6516340e+15 </wgt>
<wgt id='1040'> +1.4595030e+15 </wgt>
<wgt id='1041'> +1.4595030e+15 </wgt>
<wgt id='1042'> +1.4895103e+15 </wgt>
<wgt id='1043'> +1.4895079e+15 </wgt>
<wgt id='1044'> +1.6516340e+15 </wgt>
<wgt id='1045'> +1.4595030e+15 </wgt>
<wgt id='1046'> +1.3250000e+15 </wgt>
<wgt id='1047'> +1.3250000e+15 </wgt>
<wgt id='1048'> +1.3250000e+15 </wgt>
<wgt id='1049'> +1.3215269e+15 </wgt>
<wgt id='1050'> +1.3228303e+15 </wgt>
<wgt id='1051'> +1.3268582e+15 </wgt>
<wgt id='1052'> +1.3277158e+15 </wgt>
<wgt id='1053'> +1.3205325e+15 </wgt>
<wgt id='1054'> +1.3268392e+15 </wgt>
<wgt id='1055'> +1.3207266e+15 </wgt>
<wgt id='1056'> +1.3208522e+15 </wgt>
<wgt id='1057'> +1.3264250e+15 </wgt>
<wgt id='1058'> +1.3239072e+15 </wgt>
<wgt id='1059'> +1.3313466e+15 </wgt>
<wgt id='1060'> +1.3246808e+15 </wgt>
<wgt id='1061'> +1.3287327e+15 </wgt>
<wgt id='1062'> +1.3289778e+15 </wgt>
<wgt id='1063'> +1.3271418e+15 </wgt>
<wgt id='1064'> +1.3295736e+15 </wgt>
<wgt id='1065'> +1.3313809e+15 </wgt>
<wgt id='1066'> +1.3185557e+15 </wgt>
<wgt id='1067'> +1.3131410e+15 </wgt>
<wgt id='1068'> +1.3266514e+15 </wgt>
<wgt id='1069'> +1.3204361e+15 </wgt>
<wgt id='1070'> +1.3255359e+15 </wgt>
<wgt id='1071'> +1.3290964e+15 </wgt>
<wgt id='1072'> +1.3182227e+15 </wgt>
<wgt id='1073'> +1.3261099e+15 </wgt>
<wgt id='1074'> +1.3230802e+15 </wgt>
<wgt id='1075'> +1.3245014e+15 </wgt>
<wgt id='1076'> +1.3254443e+15 </wgt>
<wgt id='1077'> +1.3206320e+15 </wgt>
<wgt id='1078'> +1.3267626e+15 </wgt>
<wgt id='1079'> +1.3183812e+15 </wgt>
<wgt id='1080'> +1.3240085e+15 </wgt>
<wgt id='1081'> +1.3232387e+15 </wgt>
<wgt id='1082'> +1.3203844e+15 </wgt>
<wgt id='1083'> +1.3262652e+15 </wgt>
<wgt id='1084'> +1.3282282e+15 </wgt>
<wgt id='1085'> +1.3235159e+15 </wgt>
<wgt id='1086'> +1.3226046e+15 </wgt>
<wgt id='1087'> +1.3242696e+15 </wgt>
<wgt id='1088'> +1.3231784e+15 </wgt>
<wgt id='1089'> +1.3232273e+15 </wgt>
<wgt id='1090'> +1.3271392e+15 </wgt>
<wgt id='1091'> +1.3247516e+15 </wgt>
<wgt id='1092'> +1.3264482e+15 </wgt>
<wgt id='1093'> +1.3246852e+15 </wgt>
<wgt id='1094'> +1.3237504e+15 </wgt>
<wgt id='1095'> +1.3251222e+15 </wgt>
<wgt id='1096'> +1.3246383e+15 </wgt>
<wgt id='1097'> +1.3234915e+15 </wgt>
<wgt id='1098'> +1.3238245e+15 </wgt>
<wgt id='1099'> +1.3245802e+15 </wgt>
<wgt id='1100'> +1.3271473e+15 </wgt>
<wgt id='1101'> +1.3249193e+15 </wgt>
<wgt id='1102'> +1.3245791e+15 </wgt>
<wgt id='1103'> +1.3242658e+15 </wgt>
<wgt id='1104'> +1.3236819e+15 </wgt>
<wgt id='1105'> +1.3254648e+15 </wgt>
<wgt id='1106'> +1.3260471e+15 </wgt>
<wgt id='1107'> +1.3247583e+15 </wgt>
<wgt id='1108'> +1.3247734e+15 </wgt>
<wgt id='1109'> +1.3244318e+15 </wgt>
<wgt id='1110'> +1.3263194e+15 </wgt>
<wgt id='1111'> +1.3254950e+15 </wgt>
<wgt id='1112'> +1.3249777e+15 </wgt>
<wgt id='1113'> +1.3264256e+15 </wgt>
<wgt id='1114'> +1.3241140e+15 </wgt>
<wgt id='1115'> +1.3247703e+15 </wgt>
<wgt id='1116'> +1.3258682e+15 </wgt>
<wgt id='1117'> +1.3248519e+15 </wgt>
<wgt id='1118'> +1.3253321e+15 </wgt>
<wgt id='1119'> +1.3244943e+15 </wgt>
<wgt id='1120'> +1.3246910e+15 </wgt>
<wgt id='1121'> +1.3253151e+15 </wgt>
<wgt id='1122'> +1.3242962e+15 </wgt>
<wgt id='1123'> +1.3247442e+15 </wgt>
<wgt id='1124'> +1.3246127e+15 </wgt>
<wgt id='1125'> +1.3257559e+15 </wgt>
<wgt id='1126'> +1.3253635e+15 </wgt>
<wgt id='1127'> +1.3245598e+15 </wgt>
<wgt id='1128'> +1.3251877e+15 </wgt>
<wgt id='1129'> +1.3248585e+15 </wgt>
<wgt id='1130'> +1.3251365e+15 </wgt>
<wgt id='1131'> +1.3259458e+15 </wgt>
<wgt id='1132'> +1.3248434e+15 </wgt>
<wgt id='1133'> +1.3252041e+15 </wgt>
<wgt id='1134'> +1.3248896e+15 </wgt>
<wgt id='1135'> +1.3251380e+15 </wgt>
<wgt id='1136'> +1.3248640e+15 </wgt>
<wgt id='1137'> +1.3245389e+15 </wgt>
<wgt id='1138'> +1.3254144e+15 </wgt>
<wgt id='1139'> +1.3250552e+15 </wgt>
<wgt id='1140'> +1.3257253e+15 </wgt>
<wgt id='1141'> +1.3245818e+15 </wgt>
<wgt id='1142'> +1.3252523e+15 </wgt>
<wgt id='1143'> +1.3255293e+15 </wgt>
<wgt id='1144'> +1.3246976e+15 </wgt>
<wgt id='1145'> +1.3254071e+15 </wgt>
<wgt id='1146'> +1.3248816e+15 </wgt>
<wgt id='1147'> +1.3251958e+15 </wgt>
<wgt id='1148'> +1.3250000e+15 </wgt>
<wgt id='1149'> +1.3250000e+15 </wgt>
<wgt id='1150'> +1.3522264e+15 </wgt>
<wgt id='1151'> +1.3077058e+15 </wgt>
<wgt id='1152'> +1.3233675e+15 </wgt>
<wgt id='1153'> +1.3424162e+15 </wgt>
<wgt id='1154'> +1.3337316e+15 </wgt>
<wgt id='1155'> +1.3658539e+15 </wgt>
<wgt id='1156'> +1.3084945e+15 </wgt>
<wgt id='1157'> +1.3048869e+15 </wgt>
<wgt id='1158'> +1.3053543e+15 </wgt>
<wgt id='1159'> +1.3661414e+15 </wgt>
<wgt id='1160'> +1.3245743e+15 </wgt>
<wgt id='1161'> +1.3460234e+15 </wgt>
<wgt id='1162'> +1.2994779e+15 </wgt>
<wgt id='1163'> +1.3378771e+15 </wgt>
<wgt id='1164'> +1.2636146e+15 </wgt>
<wgt id='1165'> +1.3130604e+15 </wgt>
<wgt id='1166'> +1.3396365e+15 </wgt>
<wgt id='1167'> +1.3203383e+15 </wgt>
<wgt id='1168'> +1.2890613e+15 </wgt>
<wgt id='1169'> +1.2925522e+15 </wgt>
<wgt id='1170'> +1.2951559e+15 </wgt>
<wgt id='1171'> +1.2781592e+15 </wgt>
<wgt id='1172'> +1.2962634e+15 </wgt>
<wgt id='1173'> +1.3363609e+15 </wgt>
<wgt id='1174'> +1.3087898e+15 </wgt>
<wgt id='1175'> +1.2954453e+15 </wgt>
<wgt id='1176'> +1.3112961e+15 </wgt>
<wgt id='1177'> +1.3217656e+15 </wgt>
<wgt id='1178'> +1.3309463e+15 </wgt>
<wgt id='1179'> +1.3232532e+15 </wgt>
<wgt id='1180'> +1.3284328e+15 </wgt>
<wgt id='1181'> +1.3222159e+15 </wgt>
<wgt id='1182'> +1.3162148e+15 </wgt>
<wgt id='1183'> +1.3722450e+15 </wgt>
<wgt id='1184'> +1.2984727e+15 </wgt>
<wgt id='1185'> +1.3211030e+15 </wgt>
<wgt id='1186'> +1.2865270e+15 </wgt>
<wgt id='1187'> +1.3289941e+15 </wgt>
<wgt id='1188'> +1.3042077e+15 </wgt>
<wgt id='1189'> +1.3337114e+15 </wgt>
<wgt id='1190'> +1.3268635e+15 </wgt>
<wgt id='1191'> +1.3700473e+15 </wgt>
<wgt id='1192'> +1.3495886e+15 </wgt>
<wgt id='1193'> +1.3639895e+15 </wgt>
<wgt id='1194'> +1.3290846e+15 </wgt>
<wgt id='1195'> +1.3311177e+15 </wgt>
<wgt id='1196'> +1.3507523e+15 </wgt>
<wgt id='1197'> +1.3526944e+15 </wgt>
<wgt id='1198'> +1.2933701e+15 </wgt>
<wgt id='1199'> +1.3257830e+15 </wgt>
<wgt id='1200'> +1.3250034e+15 </wgt>
<wgt id='1201'> +1.3100330e+15 </wgt>
<wgt id='1202'> +1.3311701e+15 </wgt>
<wgt id='1203'> +1.3089042e+15 </wgt>
<wgt id='1204'> +1.3369719e+15 </wgt>
<wgt id='1205'> +1.3306354e+15 </wgt>
<wgt id='1206'> +1.3019541e+15 </wgt>
<wgt id='1207'> +1.3437997e+15 </wgt>
<wgt id='1208'> +1.2955966e+15 </wgt>
<wgt id='1209'> +1.3143561e+15 </wgt>
<wgt id='1210'> +1.3145888e+15 </wgt>
<wgt id='1211'> +1.3297030e+15 </wgt>
<wgt id='1212'> +1.3151184e+15 </wgt>
<wgt id='1213'> +1.3544813e+15 </wgt>
<wgt id='1214'> +1.3004761e+15 </wgt>
<wgt id='1215'> +1.3543271e+15 </wgt>
<wgt id='1216'> +1.3271046e+15 </wgt>
<wgt id='1217'> +1.3028028e+15 </wgt>
<wgt id='1218'> +1.3340850e+15 </wgt>
<wgt id='1219'> +1.3547782e+15 </wgt>
<wgt id='1220'> +1.3029328e+15 </wgt>
<wgt id='1221'> +1.2774953e+15 </wgt>
<wgt id='1222'> +1.3209526e+15 </wgt>
<wgt id='1223'> +1.2872239e+15 </wgt>
<wgt id='1224'> +1.3341249e+15 </wgt>
<wgt id='1225'> +1.3414234e+15 </wgt>
<wgt id='1226'> +1.3424305e+15 </wgt>
<wgt id='1227'> +1.2908386e+15 </wgt>
<wgt id='1228'> +1.3145111e+15 </wgt>
<wgt id='1229'> +1.3886937e+15 </wgt>
<wgt id='1230'> +1.3525377e+15 </wgt>
<wgt id='1231'> +1.3130604e+15 </wgt>
<wgt id='1232'> +1.3456432e+15 </wgt>
<wgt id='1233'> +1.3083846e+15 </wgt>
<wgt id='1234'> +1.2958021e+15 </wgt>
<wgt id='1235'> +1.3846793e+15 </wgt>
<wgt id='1236'> +1.3064285e+15 </wgt>
<wgt id='1237'> +1.3610718e+15 </wgt>
<wgt id='1238'> +1.3587740e+15 </wgt>
<wgt id='1239'> +1.3660601e+15 </wgt>
<wgt id='1240'> +1.3328423e+15 </wgt>
<wgt id='1241'> +1.3249166e+15 </wgt>
<wgt id='1242'> +1.3164914e+15 </wgt>
<wgt id='1243'> +1.3437381e+15 </wgt>
<wgt id='1244'> +1.3338680e+15 </wgt>
<wgt id='1245'> +1.3128670e+15 </wgt>
<wgt id='1246'> +1.3919089e+15 </wgt>
<wgt id='1247'> +1.3344140e+15 </wgt>
<wgt id='1248'> +1.2957156e+15 </wgt>
<wgt id='1249'> +1.3040546e+15 </wgt>
<wgt id='1250'> +1.3092661e+15 </wgt>
<wgt id='1251'> +1.2851192e+15 </wgt>
<wgt id='1252'> +1.3715151e+15 </wgt>
<wgt id='1253'> +1.3481550e+15 </wgt>
<wgt id='1254'> +1.4075998e+15 </wgt>
<wgt id='1255'> +1.1208346e+15 </wgt>
<wgt id='1256'> +1.1215825e+15 </wgt>
<wgt id='1257'> +1.1204730e+15 </wgt>
<wgt id='1258'> +1.1211314e+15 </wgt>
<wgt id='1259'> +1.1206982e+15 </wgt>
<wgt id='1260'> +1.1185872e+15 </wgt>
<wgt id='1261'> +1.1239124e+15 </wgt>
<wgt id='1262'> +1.1190208e+15 </wgt>
<wgt id='1263'> +1.1220742e+15 </wgt>
<wgt id='1264'> +1.1207618e+15 </wgt>
<wgt id='1265'> +1.1209645e+15 </wgt>
<wgt id='1266'> +1.1241750e+15 </wgt>
<wgt id='1267'> +1.1175240e+15 </wgt>
<wgt id='1268'> +1.1248087e+15 </wgt>
<wgt id='1269'> +1.1165995e+15 </wgt>
<wgt id='1270'> +1.1017934e+15 </wgt>
<wgt id='1271'> +1.1420713e+15 </wgt>
<wgt id='1272'> +1.1144156e+15 </wgt>
<wgt id='1273'> +1.1257261e+15 </wgt>
<wgt id='1274'> +1.1276334e+15 </wgt>
<wgt id='1275'> +1.1125729e+15 </wgt>
<wgt id='1276'> +1.1421830e+15 </wgt>
<wgt id='1277'> +1.0992410e+15 </wgt>
<wgt id='1278'> +1.1129030e+15 </wgt>
<wgt id='1279'> +1.1270027e+15 </wgt>
<wgt id='1280'> +1.1208879e+15 </wgt>
<wgt id='1281'> +1.1215256e+15 </wgt>
<wgt id='1282'> +1.1217661e+15 </wgt>
<wgt id='1283'> +1.1180300e+15 </wgt>
<wgt id='1284'> +1.1196369e+15 </wgt>
<wgt id='1285'> +1.1224270e+15 </wgt>
<wgt id='1286'> +1.1222017e+15 </wgt>
<wgt id='1287'> +1.1207692e+15 </wgt>
<wgt id='1288'> +1.1272279e+15 </wgt>
<wgt id='1289'> +1.1178360e+15 </wgt>
<wgt id='1290'> +1.1206731e+15 </wgt>
<wgt id='1291'> +1.1209301e+15 </wgt>
<wgt id='1292'> +1.1332632e+15 </wgt>
<wgt id='1293'> +1.1062146e+15 </wgt>
<wgt id='1294'> +1.1150188e+15 </wgt>
<wgt id='1295'> +1.1188150e+15 </wgt>
<wgt id='1296'> +1.3571786e+15 </wgt>
<wgt id='1297'> +1.3626093e+15 </wgt>
<wgt id='1298'> +1.3527862e+15 </wgt>
<wgt id='1299'> +1.3563780e+15 </wgt>
<wgt id='1300'> +1.3581586e+15 </wgt>
<wgt id='1301'> +1.3568941e+15 </wgt>
<wgt id='1302'> +1.3576805e+15 </wgt>
<wgt id='1303'> +1.3578852e+15 </wgt>
<wgt id='1304'> +1.3566703e+15 </wgt>
<wgt id='1305'> +1.3560955e+15 </wgt>
<wgt id='1306'> +1.3587699e+15 </wgt>
<wgt id='1307'> +1.3506696e+15 </wgt>
<wgt id='1308'> +1.3612281e+15 </wgt>
<wgt id='1309'> +1.3572903e+15 </wgt>
<wgt id='1310'> +1.3570546e+15 </wgt>
<wgt id='1311'> +1.3576397e+15 </wgt>
<wgt id='1312'> +1.3570321e+15 </wgt>
<wgt id='1313'> +1.3380886e+15 </wgt>
<wgt id='1314'> +1.3810780e+15 </wgt>
<wgt id='1315'> +1.3592779e+15 </wgt>
<wgt id='1316'> +1.3551193e+15 </wgt>
<wgt id='1317'> +1.3823848e+15 </wgt>
<wgt id='1318'> +1.3155920e+15 </wgt>
<wgt id='1319'> +1.3389901e+15 </wgt>
<wgt id='1320'> +1.3690239e+15 </wgt>
<wgt id='1321'> +1.3456745e+15 </wgt>
<wgt id='1322'> +1.3627946e+15 </wgt>
<wgt id='1323'> +1.3504553e+15 </wgt>
<wgt id='1324'> +1.3631172e+15 </wgt>
<wgt id='1325'> +1.3477554e+15 </wgt>
<wgt id='1326'> +1.3734039e+15 </wgt>
<wgt id='1327'> +1.3535564e+15 </wgt>
<wgt id='1328'> +1.3586440e+15 </wgt>
<wgt id='1329'> +1.3592944e+15 </wgt>
<wgt id='1330'> +1.3558691e+15 </wgt>
<wgt id='1331'> +1.3640317e+15 </wgt>
<wgt id='1332'> +1.3537151e+15 </wgt>
<wgt id='1333'> +1.3697408e+15 </wgt>
<wgt id='1334'> +1.3546349e+15 </wgt>
<wgt id='1335'> +1.3600681e+15 </wgt>
<wgt id='1336'> +1.3564306e+15 </wgt>
<wgt id='1337'> +1.3571786e+15 </wgt>
<wgt id='1338'> +1.3641922e+15 </wgt>
<wgt id='1339'> +1.3614615e+15 </wgt>
<wgt id='1340'> +1.3589163e+15 </wgt>
<wgt id='1341'> +1.3548477e+15 </wgt>
<wgt id='1342'> +1.3530513e+15 </wgt>
<wgt id='1343'> +1.3514665e+15 </wgt>
<wgt id='1344'> +1.3711810e+15 </wgt>
<wgt id='1345'> +1.3781140e+15 </wgt>
<wgt id='1346'> +1.3643113e+15 </wgt>
<wgt id='1347'> +1.3702427e+15 </wgt>
<wgt id='1348'> +1.3719090e+15 </wgt>
<wgt id='1349'> +1.3715826e+15 </wgt>
<wgt id='1350'> +1.3708224e+15 </wgt>
<wgt id='1351'> +1.3710554e+15 </wgt>
<wgt id='1352'> +1.3713448e+15 </wgt>
<wgt id='1353'> +1.3708251e+15 </wgt>
<wgt id='1354'> +1.3713712e+15 </wgt>
<wgt id='1355'> +1.3725819e+15 </wgt>
<wgt id='1356'> +1.3701117e+15 </wgt>
<wgt id='1357'> +1.3655373e+15 </wgt>
<wgt id='1358'> +1.3745105e+15 </wgt>
<wgt id='1359'> +1.3713037e+15 </wgt>
<wgt id='1360'> +1.3707960e+15 </wgt>
<wgt id='1361'> +1.3326522e+15 </wgt>
<wgt id='1362'> +1.4057259e+15 </wgt>
<wgt id='1363'> +1.3642599e+15 </wgt>
<wgt id='1364'> +1.3796806e+15 </wgt>
<wgt id='1365'> +1.3645284e+15 </wgt>
<wgt id='1366'> +1.3740901e+15 </wgt>
<wgt id='1367'> +1.3607756e+15 </wgt>
<wgt id='1368'> +1.3762118e+15 </wgt>
<wgt id='1369'> +1.3933829e+15 </wgt>
<wgt id='1370'> +1.3524134e+15 </wgt>
<wgt id='1371'> +1.3672477e+15 </wgt>
<wgt id='1372'> +1.3760776e+15 </wgt>
<wgt id='1373'> +1.3765020e+15 </wgt>
<wgt id='1374'> +1.3740206e+15 </wgt>
<wgt id='1375'> +1.3703658e+15 </wgt>
<wgt id='1376'> +1.3718135e+15 </wgt>
<wgt id='1377'> +1.3697314e+15 </wgt>
<wgt id='1378'> +1.3742912e+15 </wgt>
<wgt id='1379'> +1.3651388e+15 </wgt>
<wgt id='1380'> +1.3778840e+15 </wgt>
<wgt id='1381'> +1.3602665e+15 </wgt>
<wgt id='1382'> +1.3844272e+15 </wgt>
<wgt id='1383'> +1.3694501e+15 </wgt>
<wgt id='1384'> +1.3805687e+15 </wgt>
<wgt id='1385'> +1.3711810e+15 </wgt>
<wgt id='1386'> +1.3788151e+15 </wgt>
<wgt id='1387'> +1.3758173e+15 </wgt>
<wgt id='1388'> +1.3731863e+15 </wgt>
<wgt id='1389'> +1.3688584e+15 </wgt>
<wgt id='1390'> +1.3669419e+15 </wgt>
<wgt id='1391'> +1.3654661e+15 </wgt>
<wgt id='1392'> +1.3341800e+15 </wgt>
<wgt id='1393'> +1.3350673e+15 </wgt>
<wgt id='1394'> +1.3331714e+15 </wgt>
<wgt id='1395'> +1.3355360e+15 </wgt>
<wgt id='1396'> +1.3331764e+15 </wgt>
<wgt id='1397'> +1.3422528e+15 </wgt>
<wgt id='1398'> +1.3263524e+15 </wgt>
<wgt id='1399'> +1.3319257e+15 </wgt>
<wgt id='1400'> +1.3369992e+15 </wgt>
<wgt id='1401'> +1.3344649e+15 </wgt>
<wgt id='1402'> +1.3337459e+15 </wgt>
<wgt id='1403'> +1.3342150e+15 </wgt>
<wgt id='1404'> +1.3340989e+15 </wgt>
<wgt id='1405'> +1.3342606e+15 </wgt>
<wgt id='1406'> +1.3340005e+15 </wgt>
<wgt id='1407'> +1.3347915e+15 </wgt>
<wgt id='1408'> +1.3338066e+15 </wgt>
<wgt id='1409'> +1.3315674e+15 </wgt>
<wgt id='1410'> +1.3371274e+15 </wgt>
<wgt id='1411'> +1.3324112e+15 </wgt>
<wgt id='1412'> +1.3354765e+15 </wgt>
<wgt id='1413'> +1.3316592e+15 </wgt>
<wgt id='1414'> +1.3367748e+15 </wgt>
<wgt id='1415'> +1.3292216e+15 </wgt>
<wgt id='1416'> +1.3389030e+15 </wgt>
<wgt id='1417'> +1.3253378e+15 </wgt>
<wgt id='1418'> +1.3451514e+15 </wgt>
<wgt id='1419'> +1.3325683e+15 </wgt>
<wgt id='1420'> +1.3333132e+15 </wgt>
<wgt id='1421'> +1.3172182e+15 </wgt>
<wgt id='1422'> +1.3545026e+15 </wgt>
<wgt id='1423'> +1.3014368e+15 </wgt>
<wgt id='1424'> +1.3598869e+15 </wgt>
<wgt id='1425'> +1.3366169e+15 </wgt>
<wgt id='1426'> +1.3309944e+15 </wgt>
<wgt id='1427'> +1.3386485e+15 </wgt>
<wgt id='1428'> +1.3228076e+15 </wgt>
<wgt id='1429'> +1.3335025e+15 </wgt>
<wgt id='1430'> +1.3343305e+15 </wgt>
<wgt id='1431'> +1.3291447e+15 </wgt>
<wgt id='1432'> +1.3391747e+15 </wgt>
<wgt id='1433'> +1.3196285e+15 </wgt>
<wgt id='1434'> +1.3514649e+15 </wgt>
<wgt id='1435'> +1.3392777e+15 </wgt>
<wgt id='1436'> +1.3325678e+15 </wgt>
<wgt id='1437'> +1.3323696e+15 </wgt>
<wgt id='1438'> +1.3387846e+15 </wgt>
<wgt id='1439'> +1.3445091e+15 </wgt>
<wgt id='1440'> +1.3265364e+15 </wgt>
<wgt id='1441'> +1.3364388e+15 </wgt>
<wgt id='1442'> +1.3333287e+15 </wgt>
<wgt id='1443'> +1.3520045e+15 </wgt>
<wgt id='1444'> +1.3530363e+15 </wgt>
<wgt id='1445'> +1.3509181e+15 </wgt>
<wgt id='1446'> +1.3535290e+15 </wgt>
<wgt id='1447'> +1.3509235e+15 </wgt>
<wgt id='1448'> +1.3604933e+15 </wgt>
<wgt id='1449'> +1.3441043e+15 </wgt>
<wgt id='1450'> +1.3490923e+15 </wgt>
<wgt id='1451'> +1.3552530e+15 </wgt>
<wgt id='1452'> +1.3521852e+15 </wgt>
<wgt id='1453'> +1.3517448e+15 </wgt>
<wgt id='1454'> +1.3521026e+15 </wgt>
<wgt id='1455'> +1.3516843e+15 </wgt>
<wgt id='1456'> +1.3521341e+15 </wgt>
<wgt id='1457'> +1.3517548e+15 </wgt>
<wgt id='1458'> +1.3523655e+15 </wgt>
<wgt id='1459'> +1.3517554e+15 </wgt>
<wgt id='1460'> +1.3485162e+15 </wgt>
<wgt id='1461'> +1.3560323e+15 </wgt>
<wgt id='1462'> +1.3510303e+15 </wgt>
<wgt id='1463'> +1.3527618e+15 </wgt>
<wgt id='1464'> +1.3497374e+15 </wgt>
<wgt id='1465'> +1.3550026e+15 </wgt>
<wgt id='1466'> +1.3458787e+15 </wgt>
<wgt id='1467'> +1.3558622e+15 </wgt>
<wgt id='1468'> +1.3701998e+15 </wgt>
<wgt id='1469'> +1.3342905e+15 </wgt>
<wgt id='1470'> +1.3507804e+15 </wgt>
<wgt id='1471'> +1.3512443e+15 </wgt>
<wgt id='1472'> +1.3384411e+15 </wgt>
<wgt id='1473'> +1.3684494e+15 </wgt>
<wgt id='1474'> +1.3277781e+15 </wgt>
<wgt id='1475'> +1.3800700e+15 </wgt>
<wgt id='1476'> +1.3603353e+15 </wgt>
<wgt id='1477'> +1.3440514e+15 </wgt>
<wgt id='1478'> +1.3564744e+15 </wgt>
<wgt id='1479'> +1.3396879e+15 </wgt>
<wgt id='1480'> +1.3520684e+15 </wgt>
<wgt id='1481'> +1.3513965e+15 </wgt>
<wgt id='1482'> +1.3471008e+15 </wgt>
<wgt id='1483'> +1.3576380e+15 </wgt>
<wgt id='1484'> +1.3371258e+15 </wgt>
<wgt id='1485'> +1.3689265e+15 </wgt>
<wgt id='1486'> +1.3586920e+15 </wgt>
<wgt id='1487'> +1.3490953e+15 </wgt>
<wgt id='1488'> +1.3494976e+15 </wgt>
<wgt id='1489'> +1.3582739e+15 </wgt>
<wgt id='1490'> +1.3641262e+15 </wgt>
<wgt id='1491'> +1.3449072e+15 </wgt>
<wgt id='1492'> +1.3560324e+15 </wgt>
<wgt id='1493'> +1.3506555e+15 </wgt>
<wgt id='1494'> +1.3341800e+15 </wgt>
<wgt id='1495'> +1.3615231e+15 </wgt>
<wgt id='1496'> +1.3520045e+15 </wgt>
<wgt id='1497'> +1.3429826e+15 </wgt>
<wgt id='1498'> +1.3276555e+15 </wgt>
<wgt id='1499'> +1.3346069e+15 </wgt>
<wgt id='1500'> +1.3439308e+15 </wgt>
<wgt id='1501'> +1.3429605e+15 </wgt>
<wgt id='1502'> +1.3417749e+15 </wgt>
<wgt id='1503'> +1.3400009e+15 </wgt>
<wgt id='1504'> +1.3374842e+15 </wgt>
<wgt id='1505'> +1.3318371e+15 </wgt>
<wgt id='1506'> +1.3286706e+15 </wgt>
<wgt id='1507'> +1.3252690e+15 </wgt>
<wgt id='1508'> +1.3346069e+15 </wgt>
<wgt id='1509'> +1.3391753e+15 </wgt>
<wgt id='1510'> +1.3367026e+15 </wgt>
<wgt id='1511'> +1.3327593e+15 </wgt>
<wgt id='1512'> +1.3312261e+15 </wgt>
<wgt id='1513'> +1.3580078e+15 </wgt>
<wgt id='1514'> +1.3577942e+15 </wgt>
<wgt id='1515'> +1.3583948e+15 </wgt>
<wgt id='1516'> +1.3624455e+15 </wgt>
<wgt id='1517'> +1.3536595e+15 </wgt>
<wgt id='1518'> +1.3622005e+15 </wgt>
<wgt id='1519'> +1.3563244e+15 </wgt>
<wgt id='1520'> +1.3600363e+15 </wgt>
<wgt id='1521'> +1.3560600e+15 </wgt>
<wgt id='1522'> +1.3587354e+15 </wgt>
<wgt id='1523'> +1.3573851e+15 </wgt>
<wgt id='1524'> +1.3588269e+15 </wgt>
<wgt id='1525'> +1.3577060e+15 </wgt>
<wgt id='1526'> +1.3575758e+15 </wgt>
<wgt id='1527'> +1.3586929e+15 </wgt>
<wgt id='1528'> +1.3594768e+15 </wgt>
<wgt id='1529'> +1.3565272e+15 </wgt>
<wgt id='1530'> +1.3570210e+15 </wgt>
<wgt id='1531'> +1.3586789e+15 </wgt>
<wgt id='1532'> +1.3591847e+15 </wgt>
<wgt id='1533'> +1.3564351e+15 </wgt>
<wgt id='1534'> +1.3560931e+15 </wgt>
<wgt id='1535'> +1.3593660e+15 </wgt>
<wgt id='1536'> +1.3614114e+15 </wgt>
<wgt id='1537'> +1.3548816e+15 </wgt>
<wgt id='1538'> +1.3588888e+15 </wgt>
<wgt id='1539'> +1.3556856e+15 </wgt>
<wgt id='1540'> +1.3547085e+15 </wgt>
<wgt id='1541'> +1.3578167e+15 </wgt>
<wgt id='1542'> +1.3702680e+15 </wgt>
<wgt id='1543'> +1.3280984e+15 </wgt>
<wgt id='1544'> +1.3476099e+15 </wgt>
<wgt id='1545'> +1.3796247e+15 </wgt>
<wgt id='1546'> +1.3627947e+15 </wgt>
<wgt id='1547'> +1.3482584e+15 </wgt>
<wgt id='1548'> +1.3409763e+15 </wgt>
<wgt id='1549'> +1.3651801e+15 </wgt>
<wgt id='1550'> +1.3569156e+15 </wgt>
<wgt id='1551'> +1.3584422e+15 </wgt>
<wgt id='1552'> +1.3508286e+15 </wgt>
<wgt id='1553'> +1.3636076e+15 </wgt>
<wgt id='1554'> +1.3674706e+15 </wgt>
<wgt id='1555'> +1.3445621e+15 </wgt>
<wgt id='1556'> +1.3592022e+15 </wgt>
<wgt id='1557'> +1.3515887e+15 </wgt>
<wgt id='1558'> +1.3460625e+15 </wgt>
<wgt id='1559'> +1.3687341e+15 </wgt>
<wgt id='1560'> +1.3659559e+15 </wgt>
<wgt id='1561'> +1.3547767e+15 </wgt>
<wgt id='1562'> +1.3548053e+15 </wgt>
<wgt id='1563'> +1.3614967e+15 </wgt>
<wgt id='1564'> +1.3580078e+15 </wgt>
<wgt id='1565'> +1.3617863e+15 </wgt>
<wgt id='1566'> +1.3552971e+15 </wgt>
<wgt id='1567'> +1.3582322e+15 </wgt>
<wgt id='1568'> +1.3755655e+15 </wgt>
<wgt id='1569'> +1.3725242e+15 </wgt>
<wgt id='1570'> +1.3691117e+15 </wgt>
<wgt id='1571'> +1.3657545e+15 </wgt>
<wgt id='1572'> +1.3621679e+15 </wgt>
<wgt id='1573'> +1.3531893e+15 </wgt>
<wgt id='1574'> +1.3479901e+15 </wgt>
<wgt id='1575'> +1.3435984e+15 </wgt>
<wgt id='1576'> +1.3582322e+15 </wgt>
<wgt id='1577'> +1.3621515e+15 </wgt>
<wgt id='1578'> +1.3601200e+15 </wgt>
<wgt id='1579'> +1.3566767e+15 </wgt>
<wgt id='1580'> +1.3554418e+15 </wgt>
<wgt id='1581'> +1.3690283e+15 </wgt>
<wgt id='1582'> +1.3712550e+15 </wgt>
<wgt id='1583'> +1.3808180e+15 </wgt>
<wgt id='1584'> +1.3604805e+15 </wgt>
<wgt id='1585'> +1.3726747e+15 </wgt>
<wgt id='1586'> +1.3552281e+15 </wgt>
<wgt id='1587'> +1.3776361e+15 </wgt>
<wgt id='1588'> +1.3768769e+15 </wgt>
<wgt id='1589'> +1.3680825e+15 </wgt>
<wgt id='1590'> +1.3760512e+15 </wgt>
<wgt id='1591'> +1.3672365e+15 </wgt>
<wgt id='1592'> +1.3385910e+15 </wgt>
<wgt id='1593'> +1.3745659e+15 </wgt>
<wgt id='1594'> +1.3511397e+15 </wgt>
<wgt id='1595'> +1.3669391e+15 </wgt>
<wgt id='1596'> +1.3847468e+15 </wgt>
<wgt id='1597'> +1.3758634e+15 </wgt>
<wgt id='1598'> +1.3844897e+15 </wgt>
<wgt id='1599'> +1.3640732e+15 </wgt>
<wgt id='1600'> +1.3742394e+15 </wgt>
<wgt id='1601'> +1.3618056e+15 </wgt>
<wgt id='1602'> +1.3712532e+15 </wgt>
<wgt id='1603'> +1.3695032e+15 </wgt>
<wgt id='1604'> +1.3644365e+15 </wgt>
<wgt id='1605'> +1.3686980e+15 </wgt>
<wgt id='1606'> +1.3692765e+15 </wgt>
<wgt id='1607'> +1.3737513e+15 </wgt>
<wgt id='1608'> +1.3615335e+15 </wgt>
<wgt id='1609'> +1.3683556e+15 </wgt>
<wgt id='1610'> +1.3683636e+15 </wgt>
<wgt id='1611'> +1.3741452e+15 </wgt>
<wgt id='1612'> +1.1472000e+15 </wgt>
<wgt id='1613'> +1.1465853e+15 </wgt>
<wgt id='1614'> +1.1465718e+15 </wgt>
<wgt id='1615'> +1.1452868e+15 </wgt>
<wgt id='1616'> +1.1505189e+15 </wgt>
<wgt id='1617'> +1.1481205e+15 </wgt>
<wgt id='1618'> +1.1452844e+15 </wgt>
<wgt id='1619'> +1.1491669e+15 </wgt>
<wgt id='1620'> +1.1468070e+15 </wgt>
<wgt id='1621'> +1.1482039e+15 </wgt>
<wgt id='1622'> +1.1461238e+15 </wgt>
<wgt id='1623'> +1.1416508e+15 </wgt>
<wgt id='1624'> +1.1432270e+15 </wgt>
<wgt id='1625'> +1.1388633e+15 </wgt>
<wgt id='1626'> +1.1431339e+15 </wgt>
<wgt id='1627'> +1.1448361e+15 </wgt>
<wgt id='1628'> +1.1496933e+15 </wgt>
<wgt id='1629'> +1.1462061e+15 </wgt>
<wgt id='1630'> +1.1421951e+15 </wgt>
<wgt id='1631'> +1.1481752e+15 </wgt>
<wgt id='1632'> +1.1425093e+15 </wgt>
<wgt id='1633'> +1.1500751e+15 </wgt>
<wgt id='1634'> +1.1426412e+15 </wgt>
<wgt id='1635'> +1.1476158e+15 </wgt>
<wgt id='1636'> +1.1433965e+15 </wgt>
<wgt id='1637'> +1.1440974e+15 </wgt>
<wgt id='1638'> +1.1486961e+15 </wgt>
<wgt id='1639'> +1.1446996e+15 </wgt>
<wgt id='1640'> +1.1452309e+15 </wgt>
<wgt id='1641'> +1.1581247e+15 </wgt>
<wgt id='1642'> +1.1481887e+15 </wgt>
<wgt id='1643'> +1.1478379e+15 </wgt>
<wgt id='1644'> +1.1493607e+15 </wgt>
<wgt id='1645'> +1.1486840e+15 </wgt>
<wgt id='1646'> +1.1481179e+15 </wgt>
<wgt id='1647'> +1.1458537e+15 </wgt>
<wgt id='1648'> +1.1456670e+15 </wgt>
<wgt id='1649'> +1.1486277e+15 </wgt>
<wgt id='1650'> +1.1468552e+15 </wgt>
<wgt id='1651'> +1.1473067e+15 </wgt>
<wgt id='1652'> +1.1475336e+15 </wgt>
<wgt id='1653'> +1.1458724e+15 </wgt>
<wgt id='1654'> +1.1427358e+15 </wgt>
<wgt id='1655'> +1.1481481e+15 </wgt>
<wgt id='1656'> +1.1489023e+15 </wgt>
<wgt id='1657'> +1.1460901e+15 </wgt>
<wgt id='1658'> +1.1499338e+15 </wgt>
<wgt id='1659'> +1.1498978e+15 </wgt>
<wgt id='1660'> +1.1450709e+15 </wgt>
<wgt id='1661'> +1.1465440e+15 </wgt>
<wgt id='1662'> +1.1486793e+15 </wgt>
<wgt id='1663'> +1.1488848e+15 </wgt>
<wgt id='1664'> +1.1463926e+15 </wgt>
<wgt id='1665'> +1.1475383e+15 </wgt>
<wgt id='1666'> +1.1480126e+15 </wgt>
<wgt id='1667'> +1.1477952e+15 </wgt>
<wgt id='1668'> +1.1471161e+15 </wgt>
<wgt id='1669'> +1.1467674e+15 </wgt>
<wgt id='1670'> +1.1473587e+15 </wgt>
<wgt id='1671'> +1.1469518e+15 </wgt>
<wgt id='1672'> +1.1476850e+15 </wgt>
<wgt id='1673'> +1.1465614e+15 </wgt>
<wgt id='1674'> +1.1468615e+15 </wgt>
<wgt id='1675'> +1.1471701e+15 </wgt>
<wgt id='1676'> +1.1465632e+15 </wgt>
<wgt id='1677'> +1.1475683e+15 </wgt>
<wgt id='1678'> +1.1470362e+15 </wgt>
<wgt id='1679'> +1.1473072e+15 </wgt>
<wgt id='1680'> +1.1477823e+15 </wgt>
<wgt id='1681'> +1.1477408e+15 </wgt>
<wgt id='1682'> +1.1464196e+15 </wgt>
<wgt id='1683'> +1.1463461e+15 </wgt>
<wgt id='1684'> +1.1472390e+15 </wgt>
<wgt id='1685'> +1.1468128e+15 </wgt>
<wgt id='1686'> +1.1469421e+15 </wgt>
<wgt id='1687'> +1.1467628e+15 </wgt>
<wgt id='1688'> +1.1475995e+15 </wgt>
<wgt id='1689'> +1.1462503e+15 </wgt>
<wgt id='1690'> +1.1472673e+15 </wgt>
<wgt id='1691'> +1.1475446e+15 </wgt>
<wgt id='1692'> +1.1474888e+15 </wgt>
<wgt id='1693'> +1.1476616e+15 </wgt>
<wgt id='1694'> +1.1477828e+15 </wgt>
<wgt id='1695'> +1.1472074e+15 </wgt>
<wgt id='1696'> +1.1471690e+15 </wgt>
<wgt id='1697'> +1.1472031e+15 </wgt>
<wgt id='1698'> +1.1471463e+15 </wgt>
<wgt id='1699'> +1.1468419e+15 </wgt>
<wgt id='1700'> +1.1474128e+15 </wgt>
<wgt id='1701'> +1.1469693e+15 </wgt>
<wgt id='1702'> +1.1471473e+15 </wgt>
<wgt id='1703'> +1.1472476e+15 </wgt>
<wgt id='1704'> +1.1471071e+15 </wgt>
<wgt id='1705'> +1.1472981e+15 </wgt>
<wgt id='1706'> +1.1472291e+15 </wgt>
<wgt id='1707'> +1.1475230e+15 </wgt>
<wgt id='1708'> +1.1468503e+15 </wgt>
<wgt id='1709'> +1.1478680e+15 </wgt>
<wgt id='1710'> +1.1470046e+15 </wgt>
<wgt id='1711'> +1.1471427e+15 </wgt>
<wgt id='1712'> +1.1472113e+15 </wgt>
<wgt id='1713'> +1.1600431e+15 </wgt>
<wgt id='1714'> +1.1413061e+15 </wgt>
<wgt id='1715'> +1.3518698e+15 </wgt>
<wgt id='1716'> +1.3422044e+15 </wgt>
<wgt id='1717'> +1.4317178e+15 </wgt>
<wgt id='1718'> +1.3663914e+15 </wgt>
<wgt id='1719'> +1.3634447e+15 </wgt>
<wgt id='1720'> +1.3787334e+15 </wgt>
<wgt id='1721'> +1.4126454e+15 </wgt>
<wgt id='1722'> +1.3573505e+15 </wgt>
<wgt id='1723'> +1.3640247e+15 </wgt>
<wgt id='1724'> +1.3460443e+15 </wgt>
<wgt id='1725'> +1.3328996e+15 </wgt>
<wgt id='1726'> +1.3246798e+15 </wgt>
<wgt id='1727'> +1.3662320e+15 </wgt>
<wgt id='1728'> +1.3503419e+15 </wgt>
<wgt id='1729'> +1.3456124e+15 </wgt>
<wgt id='1730'> +1.3452316e+15 </wgt>
<wgt id='1731'> +1.4030622e+15 </wgt>
<wgt id='1732'> +1.2901903e+15 </wgt>
<wgt id='1733'> +1.3325517e+15 </wgt>
<wgt id='1734'> +1.4287650e+15 </wgt>
<wgt id='1735'> +1.3493587e+15 </wgt>
<wgt id='1736'> +1.4141889e+15 </wgt>
<wgt id='1737'> +1.3147778e+15 </wgt>
<wgt id='1738'> +1.3575030e+15 </wgt>
<wgt id='1739'> +1.3895839e+15 </wgt>
<wgt id='1740'> +1.3559105e+15 </wgt>
<wgt id='1741'> +1.3211767e+15 </wgt>
<wgt id='1742'> +1.3331306e+15 </wgt>
<wgt id='1743'> +1.3336593e+15 </wgt>
<wgt id='1744'> +1.3591952e+15 </wgt>
<wgt id='1745'> +1.3851665e+15 </wgt>
<wgt id='1746'> +1.3595436e+15 </wgt>
<wgt id='1747'> +1.3402247e+15 </wgt>
<wgt id='1748'> +1.3305441e+15 </wgt>
<wgt id='1749'> +1.3132596e+15 </wgt>
<wgt id='1750'> +1.2996787e+15 </wgt>
<wgt id='1751'> +1.3587402e+15 </wgt>
<wgt id='1752'> +1.4117162e+15 </wgt>
<wgt id='1753'> +1.3703549e+15 </wgt>
<wgt id='1754'> +1.3568175e+15 </wgt>
<wgt id='1755'> +1.3513204e+15 </wgt>
<wgt id='1756'> +1.4238479e+15 </wgt>
<wgt id='1757'> +1.3518851e+15 </wgt>
<wgt id='1758'> +1.3791013e+15 </wgt>
<wgt id='1759'> +1.3626422e+15 </wgt>
<wgt id='1760'> +1.3487653e+15 </wgt>
<wgt id='1761'> +1.3601552e+15 </wgt>
<wgt id='1762'> +1.3662320e+15 </wgt>
<wgt id='1763'> +1.3753355e+15 </wgt>
<wgt id='1764'> +1.3396487e+15 </wgt>
<wgt id='1765'> +1.3328179e+15 </wgt>
<wgt id='1766'> +1.3178466e+15 </wgt>
<wgt id='1767'> +1.3223621e+15 </wgt>
<wgt id='1768'> +1.3127997e+15 </wgt>
<wgt id='1769'> +1.3598529e+15 </wgt>
<wgt id='1770'> +1.3317962e+15 </wgt>
<wgt id='1771'> +1.3421963e+15 </wgt>
<wgt id='1772'> +1.3362935e+15 </wgt>
<wgt id='1773'> +1.3452624e+15 </wgt>
<wgt id='1774'> +1.3405255e+15 </wgt>
<wgt id='1775'> +1.3483475e+15 </wgt>
<wgt id='1776'> +1.3736288e+15 </wgt>
<wgt id='1777'> +1.3618792e+15 </wgt>
<wgt id='1778'> +1.3369848e+15 </wgt>
<wgt id='1779'> +1.3516553e+15 </wgt>
<wgt id='1780'> +1.3609465e+15 </wgt>
<wgt id='1781'> +1.3631012e+15 </wgt>
<wgt id='1782'> +1.3060191e+15 </wgt>
<wgt id='1783'> +1.3465587e+15 </wgt>
<wgt id='1784'> +1.2925121e+15 </wgt>
<wgt id='1785'> +1.3396325e+15 </wgt>
<wgt id='1786'> +1.3490232e+15 </wgt>
<wgt id='1787'> +1.3333275e+15 </wgt>
<wgt id='1788'> +1.3672321e+15 </wgt>
<wgt id='1789'> +1.3509740e+15 </wgt>
<wgt id='1790'> +1.3290720e+15 </wgt>
<wgt id='1791'> +1.4124525e+15 </wgt>
<wgt id='1792'> +1.3536772e+15 </wgt>
<wgt id='1793'> +1.3096078e+15 </wgt>
<wgt id='1794'> +1.3200277e+15 </wgt>
<wgt id='1795'> +1.3455228e+15 </wgt>
<wgt id='1796'> +1.3248635e+15 </wgt>
<wgt id='1797'> +1.3884758e+15 </wgt>
<wgt id='1798'> +1.3626976e+15 </wgt>
<wgt id='1799'> +1.3235855e+15 </wgt>
<wgt id='1800'> +1.3721624e+15 </wgt>
<wgt id='1801'> +1.3512128e+15 </wgt>
<wgt id='1802'> +1.3478273e+15 </wgt>
<wgt id='1803'> +1.3597991e+15 </wgt>
<wgt id='1804'> +1.3520666e+15 </wgt>
<wgt id='1805'> +1.3543203e+15 </wgt>
<wgt id='1806'> +1.3617803e+15 </wgt>
<wgt id='1807'> +1.3875395e+15 </wgt>
<wgt id='1808'> +1.3466507e+15 </wgt>
<wgt id='1809'> +1.3735907e+15 </wgt>
<wgt id='1810'> +1.3520114e+15 </wgt>
<wgt id='1811'> +1.3322393e+15 </wgt>
<wgt id='1812'> +1.3138587e+15 </wgt>
<wgt id='1813'> +1.3478955e+15 </wgt>
<wgt id='1814'> +1.3248998e+15 </wgt>
<wgt id='1815'> +1.3314911e+15 </wgt>
<wgt id='1816'> +1.4111956e+15 </wgt>
<wgt id='1817'> +1.4522426e+15 </wgt>
<wgt id='1818'> +1.4445128e+15 </wgt>
<wgt id='1819'> +1.4391004e+15 </wgt>
<wgt id='1820'> +1.3605345e+15 </wgt>
<wgt id='1821'> +1.4580048e+15 </wgt>
<wgt id='1822'> +1.4129065e+15 </wgt>
<wgt id='1823'> +1.4077990e+15 </wgt>
<wgt id='1824'> +1.4322427e+15 </wgt>
<wgt id='1825'> +1.4080344e+15 </wgt>
<wgt id='1826'> +1.4352949e+15 </wgt>
<wgt id='1827'> +1.3665986e+15 </wgt>
<wgt id='1828'> +1.4090136e+15 </wgt>
<wgt id='1829'> +1.3968852e+15 </wgt>
<wgt id='1830'> +1.4349044e+15 </wgt>
<wgt id='1831'> +1.4489335e+15 </wgt>
<wgt id='1832'> +1.4380170e+15 </wgt>
<wgt id='1833'> +1.4809576e+15 </wgt>
<wgt id='1834'> +1.4616937e+15 </wgt>
<wgt id='1835'> +1.3961997e+15 </wgt>
<wgt id='1836'> +1.4580178e+15 </wgt>
<wgt id='1837'> +1.3849555e+15 </wgt>
<wgt id='1838'> +1.3917568e+15 </wgt>
<wgt id='1839'> +1.4090525e+15 </wgt>
<wgt id='1840'> +1.3862986e+15 </wgt>
<wgt id='1841'> +1.3950670e+15 </wgt>
<wgt id='1842'> +1.3927212e+15 </wgt>
<wgt id='1843'> +1.4636758e+15 </wgt>
<wgt id='1844'> +1.4270366e+15 </wgt>
<wgt id='1845'> +1.4675482e+15 </wgt>
<wgt id='1846'> +1.4188417e+15 </wgt>
<wgt id='1847'> +1.3807322e+15 </wgt>
<wgt id='1848'> +1.3733949e+15 </wgt>
<wgt id='1849'> +1.3759538e+15 </wgt>
<wgt id='1850'> +1.3646185e+15 </wgt>
<wgt id='1851'> +1.4119883e+15 </wgt>
<wgt id='1852'> +1.3908601e+15 </wgt>
<wgt id='1853'> +1.4391287e+15 </wgt>
<wgt id='1854'> +1.4161052e+15 </wgt>
<wgt id='1855'> +1.4086600e+15 </wgt>
<wgt id='1856'> +1.3764888e+15 </wgt>
<wgt id='1857'> +1.3998258e+15 </wgt>
<wgt id='1858'> +1.3827922e+15 </wgt>
<wgt id='1859'> +1.3619121e+15 </wgt>
<wgt id='1860'> +1.4135974e+15 </wgt>
<wgt id='1861'> +1.4136173e+15 </wgt>
<wgt id='1862'> +1.3978979e+15 </wgt>
<wgt id='1863'> +1.4245410e+15 </wgt>
<wgt id='1864'> +1.4270407e+15 </wgt>
<wgt id='1865'> +1.4383855e+15 </wgt>
<wgt id='1866'> +1.4025082e+15 </wgt>
<wgt id='1867'> +1.3931356e+15 </wgt>
<wgt id='1868'> +1.4150221e+15 </wgt>
<wgt id='1869'> +1.4050067e+15 </wgt>
<wgt id='1870'> +1.3920748e+15 </wgt>
<wgt id='1871'> +1.3837742e+15 </wgt>
<wgt id='1872'> +1.4590038e+15 </wgt>
<wgt id='1873'> +1.3924383e+15 </wgt>
<wgt id='1874'> +1.4048517e+15 </wgt>
<wgt id='1875'> +1.4537679e+15 </wgt>
<wgt id='1876'> +1.4051128e+15 </wgt>
<wgt id='1877'> +1.4099380e+15 </wgt>
<wgt id='1878'> +1.4386516e+15 </wgt>
<wgt id='1879'> +1.3618686e+15 </wgt>
<wgt id='1880'> +1.4645835e+15 </wgt>
<wgt id='1881'> +1.3225694e+15 </wgt>
<wgt id='1882'> +1.4003776e+15 </wgt>
<wgt id='1883'> +1.4753560e+15 </wgt>
<wgt id='1884'> +1.3820579e+15 </wgt>
<wgt id='1885'> +1.3821035e+15 </wgt>
<wgt id='1886'> +1.3855626e+15 </wgt>
<wgt id='1887'> +1.3715597e+15 </wgt>
<wgt id='1888'> +1.4073705e+15 </wgt>
<wgt id='1889'> +1.4302267e+15 </wgt>
<wgt id='1890'> +1.4158720e+15 </wgt>
<wgt id='1891'> +1.4275717e+15 </wgt>
<wgt id='1892'> +1.3643380e+15 </wgt>
<wgt id='1893'> +1.3670313e+15 </wgt>
<wgt id='1894'> +1.3943655e+15 </wgt>
<wgt id='1895'> +1.4123378e+15 </wgt>
<wgt id='1896'> +1.3910005e+15 </wgt>
<wgt id='1897'> +1.3729818e+15 </wgt>
<wgt id='1898'> +1.3949361e+15 </wgt>
<wgt id='1899'> +1.4441142e+15 </wgt>
<wgt id='1900'> +1.4188507e+15 </wgt>
<wgt id='1901'> +1.4482754e+15 </wgt>
<wgt id='1902'> +1.4225434e+15 </wgt>
<wgt id='1903'> +1.4231746e+15 </wgt>
<wgt id='1904'> +1.4159740e+15 </wgt>
<wgt id='1905'> +1.4312868e+15 </wgt>
<wgt id='1906'> +1.3944340e+15 </wgt>
<wgt id='1907'> +1.4086662e+15 </wgt>
<wgt id='1908'> +1.3817505e+15 </wgt>
<wgt id='1909'> +1.4450574e+15 </wgt>
<wgt id='1910'> +1.4361692e+15 </wgt>
<wgt id='1911'> +1.4766693e+15 </wgt>
<wgt id='1912'> +1.3687214e+15 </wgt>
<wgt id='1913'> +1.4185076e+15 </wgt>
<wgt id='1914'> +1.3584876e+15 </wgt>
<wgt id='1915'> +1.4184702e+15 </wgt>
<wgt id='1916'> +1.4641665e+15 </wgt>
<wgt id='1917'> +1.4374465e+15 </wgt>
<wgt id='1918'> +1.1629832e+15 </wgt>
<wgt id='1919'> +1.4111956e+15 </wgt>
<wgt id='1920'> +1.4522426e+15 </wgt>
<wgt id='1921'> +1.4445128e+15 </wgt>
<wgt id='1922'> +1.4391004e+15 </wgt>
<wgt id='1923'> +1.3605345e+15 </wgt>
<wgt id='1924'> +1.4580048e+15 </wgt>
<wgt id='1925'> +1.4129065e+15 </wgt>
<wgt id='1926'> +1.4077990e+15 </wgt>
<wgt id='1927'> +1.4322427e+15 </wgt>
<wgt id='1928'> +1.4080344e+15 </wgt>
<wgt id='1929'> +1.4352949e+15 </wgt>
<wgt id='1930'> +1.3665986e+15 </wgt>
<wgt id='1931'> +1.4090136e+15 </wgt>
<wgt id='1932'> +1.3968852e+15 </wgt>
<wgt id='1933'> +1.4349044e+15 </wgt>
<wgt id='1934'> +1.4489335e+15 </wgt>
<wgt id='1935'> +1.4380170e+15 </wgt>
<wgt id='1936'> +1.4809576e+15 </wgt>
<wgt id='1937'> +1.4616937e+15 </wgt>
<wgt id='1938'> +1.3961997e+15 </wgt>
<wgt id='1939'> +1.4580178e+15 </wgt>
<wgt id='1940'> +1.3849555e+15 </wgt>
<wgt id='1941'> +1.3917568e+15 </wgt>
<wgt id='1942'> +1.4090525e+15 </wgt>
<wgt id='1943'> +1.3862986e+15 </wgt>
<wgt id='1944'> +1.3950670e+15 </wgt>
<wgt id='1945'> +1.3927212e+15 </wgt>
<wgt id='1946'> +1.4636758e+15 </wgt>
<wgt id='1947'> +1.4270366e+15 </wgt>
<wgt id='1948'> +1.4675482e+15 </wgt>
<wgt id='1949'> +1.4188417e+15 </wgt>
<wgt id='1950'> +1.3807322e+15 </wgt>
<wgt id='1951'> +1.3733949e+15 </wgt>
<wgt id='1952'> +1.3759538e+15 </wgt>
<wgt id='1953'> +1.3646185e+15 </wgt>
<wgt id='1954'> +1.4119883e+15 </wgt>
<wgt id='1955'> +1.3908601e+15 </wgt>
<wgt id='1956'> +1.4391287e+15 </wgt>
<wgt id='1957'> +1.4161052e+15 </wgt>
<wgt id='1958'> +1.4086600e+15 </wgt>
<wgt id='1959'> +1.3764888e+15 </wgt>
<wgt id='1960'> +1.3998258e+15 </wgt>
<wgt id='1961'> +1.3827922e+15 </wgt>
<wgt id='1962'> +1.3619121e+15 </wgt>
<wgt id='1963'> +1.4135974e+15 </wgt>
<wgt id='1964'> +1.4136173e+15 </wgt>
<wgt id='1965'> +1.3978979e+15 </wgt>
<wgt id='1966'> +1.4245410e+15 </wgt>
<wgt id='1967'> +1.4270407e+15 </wgt>
<wgt id='1968'> +1.4383855e+15 </wgt>
<wgt id='1969'> +1.4025082e+15 </wgt>
<wgt id='1970'> +1.3931356e+15 </wgt>
<wgt id='1971'> +1.4150221e+15 </wgt>
<wgt id='1972'> +1.4050067e+15 </wgt>
<wgt id='1973'> +1.3920748e+15 </wgt>
<wgt id='1974'> +1.3837742e+15 </wgt>
<wgt id='1975'> +1.4590038e+15 </wgt>
<wgt id='1976'> +1.3924383e+15 </wgt>
<wgt id='1977'> +1.4048517e+15 </wgt>
<wgt id='1978'> +1.4537679e+15 </wgt>
<wgt id='1979'> +1.4051128e+15 </wgt>
<wgt id='1980'> +1.4099380e+15 </wgt>
<wgt id='1981'> +1.4386516e+15 </wgt>
<wgt id='1982'> +1.3618686e+15 </wgt>
<wgt id='1983'> +1.4645835e+15 </wgt>
<wgt id='1984'> +1.3225694e+15 </wgt>
<wgt id='1985'> +1.4003776e+15 </wgt>
<wgt id='1986'> +1.4753560e+15 </wgt>
<wgt id='1987'> +1.3820579e+15 </wgt>
<wgt id='1988'> +1.3821035e+15 </wgt>
<wgt id='1989'> +1.3855626e+15 </wgt>
<wgt id='1990'> +1.3715597e+15 </wgt>
<wgt id='1991'> +1.4073705e+15 </wgt>
<wgt id='1992'> +1.4302267e+15 </wgt>
<wgt id='1993'> +1.4158720e+15 </wgt>
<wgt id='1994'> +1.4275717e+15 </wgt>
<wgt id='1995'> +1.3643380e+15 </wgt>
<wgt id='1996'> +1.3670313e+15 </wgt>
<wgt id='1997'> +1.3943655e+15 </wgt>
<wgt id='1998'> +1.4123378e+15 </wgt>
<wgt id='1999'> +1.3910005e+15 </wgt>
<wgt id='2000'> +1.3729818e+15 </wgt>
<wgt id='2001'> +1.3949361e+15 </wgt>
<wgt id='2002'> +1.4441142e+15 </wgt>
<wgt id='2003'> +1.4188507e+15 </wgt>
<wgt id='2004'> +1.4482754e+15 </wgt>
<wgt id='2005'> +1.4225434e+15 </wgt>
<wgt id='2006'> +1.4231746e+15 </wgt>
<wgt id='2007'> +1.4159740e+15 </wgt>
<wgt id='2008'> +1.4312868e+15 </wgt>
<wgt id='2009'> +1.3944340e+15 </wgt>
<wgt id='2010'> +1.4086662e+15 </wgt>
<wgt id='2011'> +1.3817505e+15 </wgt>
<wgt id='2012'> +1.4450574e+15 </wgt>
<wgt id='2013'> +1.4361692e+15 </wgt>
<wgt id='2014'> +1.4766693e+15 </wgt>
<wgt id='2015'> +1.3687214e+15 </wgt>
<wgt id='2016'> +1.4185076e+15 </wgt>
<wgt id='2017'> +1.3584876e+15 </wgt>
<wgt id='2018'> +1.4184702e+15 </wgt>
<wgt id='2019'> +1.4641665e+15 </wgt>
<wgt id='2020'> +1.4198057e+15 </wgt>
<wgt id='2021'> +1.4001678e+15 </wgt>
<wgt id='2022'> +1.3756347e+15 </wgt>
</rwgt>
</event>
<event>
 9      1 +1.3250000e+15 1.00000000e+03 7.81738600e-03 8.18908900e-02
       21 -1    0    0  502  501 +0.0000000000e+00 +0.0000000000e+00 +1.0574633370e+03 1.0574633370e+03 0.0000000000e+00 0.0000e+00 1.0000e+00
       21 -1    0    0  501  502 -0.0000000000e+00 -0.0000000000e+00 -2.3641487814e+02 2.3641487814e+02 0.0000000000e+00 0.0000e+00 1.0000e+00
       45  2    1    2    0    0 -1.1368683772e-13 -8.8817841970e-16 +8.2104845882e+02 1.2938782151e+03 1.0000001319e+03 0.0000e+00 0.0000e+00
       25  2    3    3    0    0 +4.6944673348e+02 +4.6436094616e-02 +5.8061540514e+02 7.5704646483e+02 1.2499945400e+02 0.0000e+00 0.0000e+00
       35  2    3    3    0    0 -4.6944673348e+02 -4.6436094616e-02 +2.4043305368e+02 5.3683175026e+02 1.0000018530e+02 0.0000e+00 0.0000e+00
       22  1    5    5    0    0 -2.7045649422e+02 -3.7604466802e+01 +1.7366348857e+02 3.2360441662e+02 0.0000000000e+00 0.0000e+00 -1.0000e+00
       22  1    5    5    0    0 -1.9899023925e+02 +3.7558030708e+01 +6.6769565106e+01 2.1322733364e+02 0.0000000000e+00 0.0000e+00 -1.0000e+00
      -15  1    4    4    0    0 +4.1335801321e+02 -6.4488564572e+00 +4.3145788865e+02 5.9754958141e+02 1.7770000000e+00 0.0000e+00 -1.0000e+00
       15  1    4    4    0    0 +5.6088720265e+01 +6.4952925518e+00 +1.4915751650e+02 1.5949688343e+02 1.7770000000e+00 0.0000e+00 -1.0000e+00
<mgrwt>
<rscale>  0 0.10000001E+04</rscale>
<asrwt>0</asrwt>
<pdfrwt beam="1">  1       21 0.16268666E+00 0.10000001E+04</pdfrwt>
<pdfrwt beam="2">  1       21 0.36371520E-01 0.10000001E+04</pdfrwt>
<totfact> 0.14599535E+03</totfact>
</mgrwt>
<rwgt>
<wgt id='1001'> +1.3250000e+15 </wgt>
<wgt id='1002'> +1.3354018e+15 </wgt>
<wgt id='1003'> +1.3353965e+15 </wgt>
<wgt id='1004'> +1.4742553e+15 </wgt>
<wgt id='1005'> +1.3250000e+15 </wgt>
<wgt id='1006'> +1.3250000e+15 </wgt>
<wgt id='1007'> +1.3354018e+15 </wgt>
<wgt id='1008'> +1.3353965e+15 </wgt>
<wgt id='1009'> +1.4742553e+15 </wgt>
<wgt id='1010'> +1.3250000e+15 </wgt>
<wgt id='1011'> +1.3250000e+15 </wgt>
<wgt id='1012'> +1.3354018e+15 </wgt>
<wgt id='1013'> +1.3353965e+15 </wgt>
<wgt id='1014'> +1.4742553e+15 </wgt>
<wgt id='1015'> +1.3250000e+15 </wgt>
<wgt id='1016'> +1.2071390e+15 </wgt>
<wgt id='1017'> +1.2160753e+15 </wgt>
<wgt id='1018'> +1.2160708e+15 </wgt>
<wgt id='1019'> +1.3353965e+15 </wgt>
<wgt id='1020'> +1.2071390e+15 </wgt>
<wgt id='1021'> +1.2071390e+15 </wgt>
<wgt id='1022'> +1.2160753e+15 </wgt>
<wgt id='1023'> +1.2160708e+15 </wgt>
<wgt id='1024'> +1.3353965e+15 </wgt>
<wgt id='1025'> +1.2071390e+15 </wgt>
<wgt id='1026'> +1.2071390e+15 </wgt>
<wgt id='1027'> +1.2160753e+15 </wgt>
<wgt id='1028'> +1.2160708e+15 </wgt>
<wgt id='1029'> +1.3353965e+15 </wgt>
<wgt id='1030'> +1.2071390e+15 </wgt>
<wgt id='1031'> +1.4622238e+15 </wgt>
<wgt id='1032'> +1.4742613e+15 </wgt>
<wgt id='1033'> +1.4742553e+15 </wgt>
<wgt id='1034'> +1.6364325e+15 </wgt>
<wgt id='1035'> +1.4622238e+15 </wgt>
<wgt id='1036'> +1.4622238e+15 </wgt>
<wgt id='1037'> +1.4742613e+15 </wgt>
<wgt id='1038'> +1.4742553e+15 </wgt>
<wgt id='1039'> +1.6364325e+15 </wgt>
<wgt id='1040'> +1.4622238e+15 </wgt>
<wgt id='1041'> +1.4622238e+15 </wgt>
<wgt id='1042'> +1.4742613e+15 </wgt>
<wgt id='1043'> +1.4742553e+15 </wgt>
<wgt id='1044'> +1.6364325e+15 </wgt>
<wgt id='1045'> +1.4622238e+15 </wgt>
<wgt id='1046'> +1.3250000e+15 </wgt>
<wgt id='1047'> +1.3250000e+15 </wgt>
<wgt id='1048'> +1.3250000e+15 </wgt>
<wgt id='1049'> +1.3239653e+15 </wgt>
<wgt id='1050'> +1.3235138e+15 </wgt>
<wgt id='1051'> +1.3221958e+15 </wgt>
<wgt id='1052'> +1.3296993e+15 </wgt>
<wgt id='1053'> +1.3192837e+15 </wgt>
<wgt id='1054'> +1.3271382e+15 </wgt>
<wgt id='1055'> +1.3222311e+15 </wgt>
<wgt id='1056'> +1.3227506e+15 </wgt>
<wgt id='1057'> +1.3258700e+15 </wgt>
<wgt id='1058'> +1.3228649e+15 </wgt>
<wgt id='1059'> +1.3285961e+15 </wgt>
<wgt id='1060'> +1.3286361e+15 </wgt>
<wgt id='1061'> +1.3274349e+15 </wgt>
<wgt id='1062'> +1.3293391e+15 </wgt>
<wgt id='1063'> +1.3293398e+15 </wgt>
<wgt id='1064'> +1.3270079e+15 </wgt>
<wgt id='1065'> +1.3279746e+15 </wgt>
<wgt id='1066'> +1.3157930e+15 </wgt>
<wgt id='1067'> +1.3223439e+15 </wgt>
<wgt id='1068'> +1.3211789e+15 </wgt>
<wgt id='1069'> +1.3228600e+15 </wgt>
<wgt id='1070'> +1.3239868e+15 </wgt>
<wgt id='1071'> +1.3231906e+15 </wgt>
<wgt id='1072'> +1.3197757e+15 </wgt>
<wgt id='1073'> +1.3265163e+15 </wgt>
<wgt id='1074'> +1.3248394e+15 </wgt>
<wgt id='1075'> +1.3293761e+15 </wgt>
<wgt id='1076'> +1.3178949e+15 </wgt>
<wgt id='1077'> +1.3197828e+15 </wgt>
<wgt id='1078'> +1.3270714e+15 </wgt>
<wgt id='1079'> +1.3195916e+15 </wgt>
<wgt id='1080'> +1.3232440e+15 </wgt>
<wgt id='1081'> +1.3228062e+15 </wgt>
<wgt id='1082'> +1.3199003e+15 </wgt>
<wgt id='1083'> +1.3268794e+15 </wgt>
<wgt id='1084'> +1.3270404e+15 </wgt>
<wgt id='1085'> +1.3219966e+15 </wgt>
<wgt id='1086'> +1.3239844e+15 </wgt>
<wgt id='1087'> +1.3237491e+15 </wgt>
<wgt id='1088'> +1.3228281e+15 </wgt>
<wgt id='1089'> +1.3220386e+15 </wgt>
<wgt id='1090'> +1.3275990e+15 </wgt>
<wgt id='1091'> +1.3253300e+15 </wgt>
<wgt id='1092'> +1.3264087e+15 </wgt>
<wgt id='1093'> +1.3250360e+15 </wgt>
<wgt id='1094'> +1.3222941e+15 </wgt>
<wgt id='1095'> +1.3257244e+15 </wgt>
<wgt id='1096'> +1.3247841e+15 </wgt>
<wgt id='1097'> +1.3232271e+15 </wgt>
<wgt id='1098'> +1.3235734e+15 </wgt>
<wgt id='1099'> +1.3238353e+15 </wgt>
<wgt id='1100'> +1.3276573e+15 </wgt>
<wgt id='1101'> +1.3250711e+15 </wgt>
<wgt id='1102'> +1.3245506e+15 </wgt>
<wgt id='1103'> +1.3231350e+15 </wgt>
<wgt id='1104'> +1.3241521e+15 </wgt>
<wgt id='1105'> +1.3255424e+15 </wgt>
<wgt id='1106'> +1.3263322e+15 </wgt>
<wgt id='1107'> +1.3253672e+15 </wgt>
<wgt id='1108'> +1.3243890e+15 </wgt>
<wgt id='1109'> +1.3240939e+15 </wgt>
<wgt id='1110'> +1.3264150e+15 </wgt>
<wgt id='1111'> +1.3255528e+15 </wgt>
<wgt id='1112'> +1.3249065e+15 </wgt>
<wgt id='1113'> +1.3263827e+15 </wgt>
<wgt id='1114'> +1.3239028e+15 </wgt>
<wgt id='1115'> +1.3238429e+15 </wgt>
<wgt id='1116'> +1.3268773e+15 </wgt>
<wgt id='1117'> +1.3247932e+15 </wgt>
<wgt id='1118'> +1.3257032e+15 </wgt>
<wgt id='1119'> +1.3240006e+15 </wgt>
<wgt id='1120'> +1.3241618e+15 </wgt>
<wgt id='1121'> +1.3254280e+15 </wgt>
<wgt id='1122'> +1.3239628e+15 </wgt>
<wgt id='1123'> +1.3247369e+15 </wgt>
<wgt id='1124'> +1.3249366e+15 </wgt>
<wgt id='1125'> +1.3258359e+15 </wgt>
<wgt id='1126'> +1.3254592e+15 </wgt>
<wgt id='1127'> +1.3244540e+15 </wgt>
<wgt id='1128'> +1.3249755e+15 </wgt>
<wgt id='1129'> +1.3245714e+15 </wgt>
<wgt id='1130'> +1.3252069e+15 </wgt>
<wgt id='1131'> +1.3265435e+15 </wgt>
<wgt id='1132'> +1.3247224e+15 </wgt>
<wgt id='1133'> +1.3253883e+15 </wgt>
<wgt id='1134'> +1.3249219e+15 </wgt>
<wgt id='1135'> +1.3251696e+15 </wgt>
<wgt id='1136'> +1.3247338e+15 </wgt>
<wgt id='1137'> +1.3243460e+15 </wgt>
<wgt id='1138'> +1.3255506e+15 </wgt>
<wgt id='1139'> +1.3252772e+15 </wgt>
<wgt id='1140'> +1.3258887e+15 </wgt>
<wgt id='1141'> +1.3242328e+15 </wgt>
<wgt id='1142'> +1.3251974e+15 </wgt>
<wgt id='1143'> +1.3256598e+15 </wgt>
<wgt id='1144'> +1.3245807e+15 </wgt>
<wgt id='1145'> +1.3255376e+15 </wgt>
<wgt id='1146'> +1.3251249e+15 </wgt>
<wgt id='1147'> +1.3252487e+15 </wgt>
<wgt id='1148'> +1.3250000e+15 </wgt>
<wgt id='1149'> +1.3250000e+15 </wgt>
<wgt id='1150'> +1.3761495e+15 </wgt>
<wgt id='1151'> +1.3075953e+15 </wgt>
<wgt id='1152'> +1.3399560e+15 </wgt>
<wgt id='1153'> +1.3361579e+15 </wgt>
<wgt id='1154'> +1.3187881e+15 </wgt>
<wgt id='1155'> +1.3632073e+15 </wgt>
<wgt id='1156'> +1.2964401e+15 </wgt>
<wgt id='1157'> +1.2805581e+15 </wgt>
<wgt id='1158'> +1.3110229e+15 </wgt>
<wgt id='1159'> +1.3994651e+15 </wgt>
<wgt id='1160'> +1.3465027e+15 </wgt>
<wgt id='1161'> +1.3304789e+15 </wgt>
<wgt id='1162'> +1.3240901e+15 </wgt>
<wgt id='1163'> +1.3262450e+15 </wgt>
<wgt id='1164'> +1.2924603e+15 </wgt>
<wgt id='1165'> +1.3103436e+15 </wgt>
<wgt id='1166'> +1.3262150e+15 </wgt>
<wgt id='1167'> +1.2996470e+15 </wgt>
<wgt id='1168'> +1.2879162e+15 </wgt>
<wgt id='1169'> +1.2952251e+15 </wgt>
<wgt id='1170'> +1.3209253e+15 </wgt>
<wgt id='1171'> +1.2799478e+15 </wgt>
<wgt id='1172'> +1.2879922e+15 </wgt>
<wgt id='1173'> +1.3192707e+15 </wgt>
<wgt id='1174'> +1.2916726e+15 </wgt>
<wgt id='1175'> +1.3038048e+15 </wgt>
<wgt id='1176'> +1.3402194e+15 </wgt>
<wgt id='1177'> +1.3060786e+15 </wgt>
<wgt id='1178'> +1.3283557e+15 </wgt>
<wgt id='1179'> +1.3298361e+15 </wgt>
<wgt id='1180'> +1.3673836e+15 </wgt>
<wgt id='1181'> +1.3374108e+15 </wgt>
<wgt id='1182'> +1.3057689e+15 </wgt>
<wgt id='1183'> +1.3400263e+15 </wgt>
<wgt id='1184'> +1.3451341e+15 </wgt>
<wgt id='1185'> +1.3383434e+15 </wgt>
<wgt id='1186'> +1.3088577e+15 </wgt>
<wgt id='1187'> +1.3265095e+15 </wgt>
<wgt id='1188'> +1.3444201e+15 </wgt>
<wgt id='1189'> +1.3142553e+15 </wgt>
<wgt id='1190'> +1.3157450e+15 </wgt>
<wgt id='1191'> +1.3415864e+15 </wgt>
<wgt id='1192'> +1.3431476e+15 </wgt>
<wgt id='1193'> +1.3477248e+15 </wgt>
<wgt id='1194'> +1.3144303e+15 </wgt>
<wgt id='1195'> +1.3270396e+15 </wgt>
<wgt id='1196'> +1.3533659e+15 </wgt>
<wgt id='1197'> +1.3399405e+15 </wgt>
<wgt id='1198'> +1.3432893e+15 </wgt>
<wgt id='1199'> +1.3573697e+15 </wgt>
<wgt id='1200'> +1.3393153e+15 </wgt>
<wgt id='1201'> +1.3071891e+15 </wgt>
<wgt id='1202'> +1.3392259e+15 </wgt>
<wgt id='1203'> +1.3220183e+15 </wgt>
<wgt id='1204'> +1.3101849e+15 </wgt>
<wgt id='1205'> +1.3190692e+15 </wgt>
<wgt id='1206'> +1.3082401e+15 </wgt>
<wgt id='1207'> +1.3436531e+15 </wgt>
<wgt id='1208'> +1.2816623e+15 </wgt>
<wgt id='1209'> +1.3246308e+15 </wgt>
<wgt id='1210'> +1.3358869e+15 </wgt>
<wgt id='1211'> +1.3312483e+15 </wgt>
<wgt id='1212'> +1.3113143e+15 </wgt>
<wgt id='1213'> +1.3415758e+15 </wgt>
<wgt id='1214'> +1.2958903e+15 </wgt>
<wgt id='1215'> +1.3308055e+15 </wgt>
<wgt id='1216'> +1.3140768e+15 </wgt>
<wgt id='1217'> +1.3077858e+15 </wgt>
<wgt id='1218'> +1.3217867e+15 </wgt>
<wgt id='1219'> +1.3542624e+15 </wgt>
<wgt id='1220'> +1.3218658e+15 </wgt>
<wgt id='1221'> +1.3182900e+15 </wgt>
<wgt id='1222'> +1.3087523e+15 </wgt>
<wgt id='1223'> +1.2975896e+15 </wgt>
<wgt id='1224'> +1.3271713e+15 </wgt>
<wgt id='1225'> +1.3535657e+15 </wgt>
<wgt id='1226'> +1.3293932e+15 </wgt>
<wgt id='1227'> +1.3247160e+15 </wgt>
<wgt id='1228'> +1.3200478e+15 </wgt>
<wgt id='1229'> +1.3863607e+15 </wgt>
<wgt id='1230'> +1.3381399e+15 </wgt>
<wgt id='1231'> +1.3103436e+15 </wgt>
<wgt id='1232'> +1.3356146e+15 </wgt>
<wgt id='1233'> +1.2966260e+15 </wgt>
<wgt id='1234'> +1.3356270e+15 </wgt>
<wgt id='1235'> +1.3719603e+15 </wgt>
<wgt id='1236'> +1.3075363e+15 </wgt>
<wgt id='1237'> +1.3439015e+15 </wgt>
<wgt id='1238'> +1.3277163e+15 </wgt>
<wgt id='1239'> +1.3237032e+15 </wgt>
<wgt id='1240'> +1.3002511e+15 </wgt>
<wgt id='1241'> +1.3348935e+15 </wgt>
<wgt id='1242'> +1.3136990e+15 </wgt>
<wgt id='1243'> +1.3310327e+15 </wgt>
<wgt id='1244'> +1.3220100e+15 </wgt>
<wgt id='1245'> +1.3084837e+15 </wgt>
<wgt id='1246'> +1.3950710e+15 </wgt>
<wgt id='1247'> +1.3159494e+15 </wgt>
<wgt id='1248'> +1.2811380e+15 </wgt>
<wgt id='1249'> +1.2918266e+15 </wgt>
<wgt id='1250'> +1.3549746e+15 </wgt>
<wgt id='1251'> +1.3289421e+15 </wgt>
<wgt id='1252'> +1.4146537e+15 </wgt>
<wgt id='1253'> +1.3933945e+15 </wgt>
<wgt id='1254'> +1.5380331e+15 </wgt>
<wgt id='1255'> +1.1553616e+15 </wgt>
<wgt id='1256'> +1.1563542e+15 </wgt>
<wgt id='1257'> +1.1548032e+15 </wgt>
<wgt id='1258'> +1.1556194e+15 </wgt>
<wgt id='1259'> +1.1552249e+15 </wgt>
<wgt id='1260'> +1.1530277e+15 </wgt>
<wgt id='1261'> +1.1584912e+15 </wgt>
<wgt id='1262'> +1.1534199e+15 </wgt>
<wgt id='1263'> +1.1565820e+15 </wgt>
<wgt id='1264'> +1.1552725e+15 </wgt>
<wgt id='1265'> +1.1554393e+15 </wgt>
<wgt id='1266'> +1.1588208e+15 </wgt>
<wgt id='1267'> +1.1518975e+15 </wgt>
<wgt id='1268'> +1.1592612e+15 </wgt>
<wgt id='1269'> +1.1511826e+15 </wgt>
<wgt id='1270'> +1.1343810e+15 </wgt>
<wgt id='1271'> +1.1789087e+15 </wgt>
<wgt id='1272'> +1.1478138e+15 </wgt>
<wgt id='1273'> +1.1611351e+15 </wgt>
<wgt id='1274'> +1.1637657e+15 </wgt>
<wgt id='1275'> +1.1450697e+15 </wgt>
<wgt id='1276'> +1.1814080e+15 </wgt>
<wgt id='1277'> +1.1292565e+15 </wgt>
<wgt id='1278'> +1.1476085e+15 </wgt>
<wgt id='1279'> +1.1612797e+15 </wgt>
<wgt id='1280'> +1.1554386e+15 </wgt>
<wgt id='1281'> +1.1561097e+15 </wgt>
<wgt id='1282'> +1.1483646e+15 </wgt>
<wgt id='1283'> +1.1597598e+15 </wgt>
<wgt id='1284'> +1.1567043e+15 </wgt>
<wgt id='1285'> +1.1546604e+15 </wgt>
<wgt id='1286'> +1.1571255e+15 </wgt>
<wgt id='1287'> +1.1552226e+15 </wgt>
<wgt id='1288'> +1.1625794e+15 </wgt>
<wgt id='1289'> +1.1519013e+15 </wgt>
<wgt id='1290'> +1.1553110e+15 </wgt>
<wgt id='1291'> +1.1553726e+15 </wgt>
<wgt id='1292'> +1.1661920e+15 </wgt>
<wgt id='1293'> +1.1418156e+15 </wgt>
<wgt id='1294'> +1.1560587e+15 </wgt>
<wgt id='1295'> +1.1479218e+15 </wgt>
<wgt id='1296'> +1.3871834e+15 </wgt>
<wgt id='1297'> +1.3927675e+15 </wgt>
<wgt id='1298'> +1.3826126e+15 </wgt>
<wgt id='1299'> +1.3861040e+15 </wgt>
<wgt id='1300'> +1.3884011e+15 </wgt>
<wgt id='1301'> +1.3868027e+15 </wgt>
<wgt id='1302'> +1.3877089e+15 </wgt>
<wgt id='1303'> +1.3879643e+15 </wgt>
<wgt id='1304'> +1.3866564e+15 </wgt>
<wgt id='1305'> +1.3859358e+15 </wgt>
<wgt id='1306'> +1.3889428e+15 </wgt>
<wgt id='1307'> +1.3799210e+15 </wgt>
<wgt id='1308'> +1.3917131e+15 </wgt>
<wgt id='1309'> +1.3874003e+15 </wgt>
<wgt id='1310'> +1.3869474e+15 </wgt>
<wgt id='1311'> +1.3866699e+15 </wgt>
<wgt id='1312'> +1.3873764e+15 </wgt>
<wgt id='1313'> +1.3659568e+15 </wgt>
<wgt id='1314'> +1.4139042e+15 </wgt>
<wgt id='1315'> +1.3900659e+15 </wgt>
<wgt id='1316'> +1.3844174e+15 </wgt>
<wgt id='1317'> +1.4188928e+15 </wgt>
<wgt id='1318'> +1.3354008e+15 </wgt>
<wgt id='1319'> +1.3650107e+15 </wgt>
<wgt id='1320'> +1.4016482e+15 </wgt>
<wgt id='1321'> +1.3734529e+15 </wgt>
<wgt id='1322'> +1.3939505e+15 </wgt>
<wgt id='1323'> +1.3799622e+15 </wgt>
<wgt id='1324'> +1.3947049e+15 </wgt>
<wgt id='1325'> +1.3763938e+15 </wgt>
<wgt id='1326'> +1.4059377e+15 </wgt>
<wgt id='1327'> +1.3824783e+15 </wgt>
<wgt id='1328'> +1.3891051e+15 </wgt>
<wgt id='1329'> +1.3899588e+15 </wgt>
<wgt id='1330'> +1.3854958e+15 </wgt>
<wgt id='1331'> +1.3963253e+15 </wgt>
<wgt id='1332'> +1.3825754e+15 </wgt>
<wgt id='1333'> +1.3854971e+15 </wgt>
<wgt id='1334'> +1.3992949e+15 </wgt>
<wgt id='1335'> +1.3903883e+15 </wgt>
<wgt id='1336'> +1.3864062e+15 </wgt>
<wgt id='1337'> +1.3871834e+15 </wgt>
<wgt id='1338'> +1.3946682e+15 </wgt>
<wgt id='1339'> +1.3918583e+15 </wgt>
<wgt id='1340'> +1.3892255e+15 </wgt>
<wgt id='1341'> +1.3850351e+15 </wgt>
<wgt id='1342'> +1.3831583e+15 </wgt>
<wgt id='1343'> +1.3815381e+15 </wgt>
<wgt id='1344'> +1.3795210e+15 </wgt>
<wgt id='1345'> +1.3864272e+15 </wgt>
<wgt id='1346'> +1.3726601e+15 </wgt>
<wgt id='1347'> +1.3790554e+15 </wgt>
<wgt id='1348'> +1.3798952e+15 </wgt>
<wgt id='1349'> +1.3799158e+15 </wgt>
<wgt id='1350'> +1.3792102e+15 </wgt>
<wgt id='1351'> +1.3794322e+15 </wgt>
<wgt id='1352'> +1.3796957e+15 </wgt>
<wgt id='1353'> +1.3792708e+15 </wgt>
<wgt id='1354'> +1.3797238e+15 </wgt>
<wgt id='1355'> +1.3810578e+15 </wgt>
<wgt id='1356'> +1.3783440e+15 </wgt>
<wgt id='1357'> +1.3737578e+15 </wgt>
<wgt id='1358'> +1.3829872e+15 </wgt>
<wgt id='1359'> +1.3799751e+15 </wgt>
<wgt id='1360'> +1.3783432e+15 </wgt>
<wgt id='1361'> +1.3365926e+15 </wgt>
<wgt id='1362'> +1.4180978e+15 </wgt>
<wgt id='1363'> +1.3709815e+15 </wgt>
<wgt id='1364'> +1.3901284e+15 </wgt>
<wgt id='1365'> +1.3720222e+15 </wgt>
<wgt id='1366'> +1.3828366e+15 </wgt>
<wgt id='1367'> +1.3683149e+15 </wgt>
<wgt id='1368'> +1.3850035e+15 </wgt>
<wgt id='1369'> +1.4046023e+15 </wgt>
<wgt id='1370'> +1.3585742e+15 </wgt>
<wgt id='1371'> +1.3746782e+15 </wgt>
<wgt id='1372'> +1.3866771e+15 </wgt>
<wgt id='1373'> +1.3741869e+15 </wgt>
<wgt id='1374'> +1.3884283e+15 </wgt>
<wgt id='1375'> +1.3738051e+15 </wgt>
<wgt id='1376'> +1.3816556e+15 </wgt>
<wgt id='1377'> +1.3762314e+15 </wgt>
<wgt id='1378'> +1.3857799e+15 </wgt>
<wgt id='1379'> +1.3720031e+15 </wgt>
<wgt id='1380'> +1.3881383e+15 </wgt>
<wgt id='1381'> +1.3779873e+15 </wgt>
<wgt id='1382'> +1.3870133e+15 </wgt>
<wgt id='1383'> +1.3785044e+15 </wgt>
<wgt id='1384'> +1.3860491e+15 </wgt>
<wgt id='1385'> +1.3795210e+15 </wgt>
<wgt id='1386'> +1.3870150e+15 </wgt>
<wgt id='1387'> +1.3840530e+15 </wgt>
<wgt id='1388'> +1.3814493e+15 </wgt>
<wgt id='1389'> +1.3772775e+15 </wgt>
<wgt id='1390'> +1.3754896e+15 </wgt>
<wgt id='1391'> +1.3741070e+15 </wgt>
<wgt id='1392'> +1.3524831e+15 </wgt>
<wgt id='1393'> +1.3532557e+15 </wgt>
<wgt id='1394'> +1.3515730e+15 </wgt>
<wgt id='1395'> +1.3536885e+15 </wgt>
<wgt id='1396'> +1.3515472e+15 </wgt>
<wgt id='1397'> +1.3605338e+15 </wgt>
<wgt id='1398'> +1.3446417e+15 </wgt>
<wgt id='1399'> +1.3507136e+15 </wgt>
<wgt id='1400'> +1.3546646e+15 </wgt>
<wgt id='1401'> +1.3527679e+15 </wgt>
<wgt id='1402'> +1.3520328e+15 </wgt>
<wgt id='1403'> +1.3523651e+15 </wgt>
<wgt id='1404'> +1.3526670e+15 </wgt>
<wgt id='1405'> +1.3526241e+15 </wgt>
<wgt id='1406'> +1.3522643e+15 </wgt>
<wgt id='1407'> +1.3534275e+15 </wgt>
<wgt id='1408'> +1.3517817e+15 </wgt>
<wgt id='1409'> +1.3493971e+15 </wgt>
<wgt id='1410'> +1.3558499e+15 </wgt>
<wgt id='1411'> +1.3505515e+15 </wgt>
<wgt id='1412'> +1.3538986e+15 </wgt>
<wgt id='1413'> +1.3490895e+15 </wgt>
<wgt id='1414'> +1.3559565e+15 </wgt>
<wgt id='1415'> +1.3466131e+15 </wgt>
<wgt id='1416'> +1.3580098e+15 </wgt>
<wgt id='1417'> +1.3423904e+15 </wgt>
<wgt id='1418'> +1.3649607e+15 </wgt>
<wgt id='1419'> +1.3502778e+15 </wgt>
<wgt id='1420'> +1.3519874e+15 </wgt>
<wgt id='1421'> +1.3322170e+15 </wgt>
<wgt id='1422'> +1.3769529e+15 </wgt>
<wgt id='1423'> +1.3137889e+15 </wgt>
<wgt id='1424'> +1.3832688e+15 </wgt>
<wgt id='1425'> +1.3554888e+15 </wgt>
<wgt id='1426'> +1.3485043e+15 </wgt>
<wgt id='1427'> +1.3577494e+15 </wgt>
<wgt id='1428'> +1.3397196e+15 </wgt>
<wgt id='1429'> +1.3513846e+15 </wgt>
<wgt id='1430'> +1.3526695e+15 </wgt>
<wgt id='1431'> +1.3462866e+15 </wgt>
<wgt id='1432'> +1.3585260e+15 </wgt>
<wgt id='1433'> +1.3355735e+15 </wgt>
<wgt id='1434'> +1.3727449e+15 </wgt>
<wgt id='1435'> +1.3571069e+15 </wgt>
<wgt id='1436'> +1.3518673e+15 </wgt>
<wgt id='1437'> +1.3500546e+15 </wgt>
<wgt id='1438'> +1.3587035e+15 </wgt>
<wgt id='1439'> +1.3534105e+15 </wgt>
<wgt id='1440'> +1.3585565e+15 </wgt>
<wgt id='1441'> +1.3509258e+15 </wgt>
<wgt id='1442'> +1.3535094e+15 </wgt>
<wgt id='1443'> +1.3666569e+15 </wgt>
<wgt id='1444'> +1.3675927e+15 </wgt>
<wgt id='1445'> +1.3656489e+15 </wgt>
<wgt id='1446'> +1.3680209e+15 </wgt>
<wgt id='1447'> +1.3657788e+15 </wgt>
<wgt id='1448'> +1.3751843e+15 </wgt>
<wgt id='1449'> +1.3588043e+15 </wgt>
<wgt id='1450'> +1.3644009e+15 </wgt>
<wgt id='1451'> +1.3692981e+15 </wgt>
<wgt id='1452'> +1.3668977e+15 </wgt>
<wgt id='1453'> +1.3663823e+15 </wgt>
<wgt id='1454'> +1.3666529e+15 </wgt>
<wgt id='1455'> +1.3666895e+15 </wgt>
<wgt id='1456'> +1.3668615e+15 </wgt>
<wgt id='1457'> +1.3662683e+15 </wgt>
<wgt id='1458'> +1.3675220e+15 </wgt>
<wgt id='1459'> +1.3662059e+15 </wgt>
<wgt id='1460'> +1.3629005e+15 </wgt>
<wgt id='1461'> +1.3710597e+15 </wgt>
<wgt id='1462'> +1.3656341e+15 </wgt>
<wgt id='1463'> +1.3675551e+15 </wgt>
<wgt id='1464'> +1.3636604e+15 </wgt>
<wgt id='1465'> +1.3705167e+15 </wgt>
<wgt id='1466'> +1.3596848e+15 </wgt>
<wgt id='1467'> +1.3710411e+15 </wgt>
<wgt id='1468'> +1.3864282e+15 </wgt>
<wgt id='1469'> +1.3476187e+15 </wgt>
<wgt id='1470'> +1.3649459e+15 </wgt>
<wgt id='1471'> +1.3662689e+15 </wgt>
<wgt id='1472'> +1.3506648e+15 </wgt>
<wgt id='1473'> +1.3862618e+15 </wgt>
<wgt id='1474'> +1.3382737e+15 </wgt>
<wgt id='1475'> +1.4000596e+15 </wgt>
<wgt id='1476'> +1.3766345e+15 </wgt>
<wgt id='1477'> +1.3572495e+15 </wgt>
<wgt id='1478'> +1.3718743e+15 </wgt>
<wgt id='1479'> +1.3530081e+15 </wgt>
<wgt id='1480'> +1.3663518e+15 </wgt>
<wgt id='1481'> +1.3658999e+15 </wgt>
<wgt id='1482'> +1.3608245e+15 </wgt>
<wgt id='1483'> +1.3734117e+15 </wgt>
<wgt id='1484'> +1.3493253e+15 </wgt>
<wgt id='1485'> +1.3864593e+15 </wgt>
<wgt id='1486'> +1.3726162e+15 </wgt>
<wgt id='1487'> +1.3649893e+15 </wgt>
<wgt id='1488'> +1.3635048e+15 </wgt>
<wgt id='1489'> +1.3746451e+15 </wgt>
<wgt id='1490'> +1.3683389e+15 </wgt>
<wgt id='1491'> +1.3732640e+15 </wgt>
<wgt id='1492'> +1.3647881e+15 </wgt>
<wgt id='1493'> +1.3683019e+15 </wgt>
<wgt id='1494'> +1.3524831e+15 </wgt>
<wgt id='1495'> +1.3751031e+15 </wgt>
<wgt id='1496'> +1.3666569e+15 </wgt>
<wgt id='1497'> +1.3602592e+15 </wgt>
<wgt id='1498'> +1.3494959e+15 </wgt>
<wgt id='1499'> +1.3537702e+15 </wgt>
<wgt id='1500'> +1.3644863e+15 </wgt>
<wgt id='1501'> +1.3632942e+15 </wgt>
<wgt id='1502'> +1.3616606e+15 </wgt>
<wgt id='1503'> +1.3596191e+15 </wgt>
<wgt id='1504'> +1.3569433e+15 </wgt>
<wgt id='1505'> +1.3509533e+15 </wgt>
<wgt id='1506'> +1.3476338e+15 </wgt>
<wgt id='1507'> +1.3440287e+15 </wgt>
<wgt id='1508'> +1.3537702e+15 </wgt>
<wgt id='1509'> +1.3581932e+15 </wgt>
<wgt id='1510'> +1.3557823e+15 </wgt>
<wgt id='1511'> +1.3520728e+15 </wgt>
<wgt id='1512'> +1.3510490e+15 </wgt>
<wgt id='1513'> +1.3888360e+15 </wgt>
<wgt id='1514'> +1.3884787e+15 </wgt>
<wgt id='1515'> +1.3892406e+15 </wgt>
<wgt id='1516'> +1.3934120e+15 </wgt>
<wgt id='1517'> +1.3842688e+15 </wgt>
<wgt id='1518'> +1.3928345e+15 </wgt>
<wgt id='1519'> +1.3872216e+15 </wgt>
<wgt id='1520'> +1.3913913e+15 </wgt>
<wgt id='1521'> +1.3862963e+15 </wgt>
<wgt id='1522'> +1.3896329e+15 </wgt>
<wgt id='1523'> +1.3880576e+15 </wgt>
<wgt id='1524'> +1.3896570e+15 </wgt>
<wgt id='1525'> +1.3884745e+15 </wgt>
<wgt id='1526'> +1.3881898e+15 </wgt>
<wgt id='1527'> +1.3895817e+15 </wgt>
<wgt id='1528'> +1.3903823e+15 </wgt>
<wgt id='1529'> +1.3871640e+15 </wgt>
<wgt id='1530'> +1.3858038e+15 </wgt>
<wgt id='1531'> +1.3905349e+15 </wgt>
<wgt id='1532'> +1.3898180e+15 </wgt>
<wgt id='1533'> +1.3874543e+15 </wgt>
<wgt id='1534'> +1.3877909e+15 </wgt>
<wgt id='1535'> +1.3894937e+15 </wgt>
<wgt id='1536'> +1.3918953e+15 </wgt>
<wgt id='1537'> +1.3859789e+15 </wgt>
<wgt id='1538'> +1.3896593e+15 </wgt>
<wgt id='1539'> +1.3864049e+15 </wgt>
<wgt id='1540'> +1.3843332e+15 </wgt>
<wgt id='1541'> +1.3895830e+15 </wgt>
<wgt id='1542'> +1.4043639e+15 </wgt>
<wgt id='1543'> +1.3507988e+15 </wgt>
<wgt id='1544'> +1.3757844e+15 </wgt>
<wgt id='1545'> +1.4163829e+15 </wgt>
<wgt id='1546'> +1.3947869e+15 </wgt>
<wgt id='1547'> +1.3770625e+15 </wgt>
<wgt id='1548'> +1.3680191e+15 </wgt>
<wgt id='1549'> +1.3980091e+15 </wgt>
<wgt id='1550'> +1.3876050e+15 </wgt>
<wgt id='1551'> +1.3899583e+15 </wgt>
<wgt id='1552'> +1.3799949e+15 </wgt>
<wgt id='1553'> +1.3956686e+15 </wgt>
<wgt id='1554'> +1.4044222e+15 </wgt>
<wgt id='1555'> +1.3663775e+15 </wgt>
<wgt id='1556'> +1.3902384e+15 </wgt>
<wgt id='1557'> +1.3808724e+15 </wgt>
<wgt id='1558'> +1.3850477e+15 </wgt>
<wgt id='1559'> +1.3926647e+15 </wgt>
<wgt id='1560'> +1.3932525e+15 </wgt>
<wgt id='1561'> +1.3869949e+15 </wgt>
<wgt id='1562'> +1.3939552e+15 </wgt>
<wgt id='1563'> +1.3856010e+15 </wgt>
<wgt id='1564'> +1.3888360e+15 </wgt>
<wgt id='1565'> +1.3898519e+15 </wgt>
<wgt id='1566'> +1.3947001e+15 </wgt>
<wgt id='1567'> +1.3923016e+15 </wgt>
<wgt id='1568'> +1.4125486e+15 </wgt>
<wgt id='1569'> +1.4088483e+15 </wgt>
<wgt id='1570'> +1.4049463e+15 </wgt>
<wgt id='1571'> +1.4011092e+15 </wgt>
<wgt id='1572'> +1.3967439e+15 </wgt>
<wgt id='1573'> +1.3867494e+15 </wgt>
<wgt id='1574'> +1.3810084e+15 </wgt>
<wgt id='1575'> +1.3760578e+15 </wgt>
<wgt id='1576'> +1.3923016e+15 </wgt>
<wgt id='1577'> +1.3959245e+15 </wgt>
<wgt id='1578'> +1.3939508e+15 </wgt>
<wgt id='1579'> +1.3909775e+15 </wgt>
<wgt id='1580'> +1.3898688e+15 </wgt>
<wgt id='1581'> +1.3944418e+15 </wgt>
<wgt id='1582'> +1.3974104e+15 </wgt>
<wgt id='1583'> +1.4001161e+15 </wgt>
<wgt id='1584'> +1.3846086e+15 </wgt>
<wgt id='1585'> +1.3948742e+15 </wgt>
<wgt id='1586'> +1.3754192e+15 </wgt>
<wgt id='1587'> +1.4054040e+15 </wgt>
<wgt id='1588'> +1.3969016e+15 </wgt>
<wgt id='1589'> +1.3932653e+15 </wgt>
<wgt id='1590'> +1.4068822e+15 </wgt>
<wgt id='1591'> +1.3970191e+15 </wgt>
<wgt id='1592'> +1.3663382e+15 </wgt>
<wgt id='1593'> +1.3981107e+15 </wgt>
<wgt id='1594'> +1.3770905e+15 </wgt>
<wgt id='1595'> +1.3949386e+15 </wgt>
<wgt id='1596'> +1.4104244e+15 </wgt>
<wgt id='1597'> +1.4014279e+15 </wgt>
<wgt id='1598'> +1.4059687e+15 </wgt>
<wgt id='1599'> +1.3842635e+15 </wgt>
<wgt id='1600'> +1.3947977e+15 </wgt>
<wgt id='1601'> +1.3859921e+15 </wgt>
<wgt id='1602'> +1.3933578e+15 </wgt>
<wgt id='1603'> +1.3990952e+15 </wgt>
<wgt id='1604'> +1.3877778e+15 </wgt>
<wgt id='1605'> +1.3900432e+15 </wgt>
<wgt id='1606'> +1.3931639e+15 </wgt>
<wgt id='1607'> +1.3967427e+15 </wgt>
<wgt id='1608'> +1.3868616e+15 </wgt>
<wgt id='1609'> +1.3905771e+15 </wgt>
<wgt id='1610'> +1.3953085e+15 </wgt>
<wgt id='1611'> +1.3829491e+15 </wgt>
<wgt id='1612'> +1.1455930e+15 </wgt>
<wgt id='1613'> +1.1443989e+15 </wgt>
<wgt id='1614'> +1.1445691e+15 </wgt>
<wgt id='1615'> +1.1435925e+15 </wgt>
<wgt id='1616'> +1.1489747e+15 </wgt>
<wgt id='1617'> +1.1459188e+15 </wgt>
<wgt id='1618'> +1.1427395e+15 </wgt>
<wgt id='1619'> +1.1449706e+15 </wgt>
<wgt id='1620'> +1.1430560e+15 </wgt>
<wgt id='1621'> +1.1476261e+15 </wgt>
<wgt id='1622'> +1.1439138e+15 </wgt>
<wgt id='1623'> +1.1411214e+15 </wgt>
<wgt id='1624'> +1.1438170e+15 </wgt>
<wgt id='1625'> +1.1397768e+15 </wgt>
<wgt id='1626'> +1.1442171e+15 </wgt>
<wgt id='1627'> +1.1446917e+15 </wgt>
<wgt id='1628'> +1.1490032e+15 </wgt>
<wgt id='1629'> +1.1453375e+15 </wgt>
<wgt id='1630'> +1.1430915e+15 </wgt>
<wgt id='1631'> +1.1465722e+15 </wgt>
<wgt id='1632'> +1.1457617e+15 </wgt>
<wgt id='1633'> +1.1464080e+15 </wgt>
<wgt id='1634'> +1.1454471e+15 </wgt>
<wgt id='1635'> +1.1479250e+15 </wgt>
<wgt id='1636'> +1.1432425e+15 </wgt>
<wgt id='1637'> +1.1468597e+15 </wgt>
<wgt id='1638'> +1.1487006e+15 </wgt>
<wgt id='1639'> +1.1429975e+15 </wgt>
<wgt id='1640'> +1.1426943e+15 </wgt>
<wgt id='1641'> +1.1536003e+15 </wgt>
<wgt id='1642'> +1.1475174e+15 </wgt>
<wgt id='1643'> +1.1463881e+15 </wgt>
<wgt id='1644'> +1.1477217e+15 </wgt>
<wgt id='1645'> +1.1467605e+15 </wgt>
<wgt id='1646'> +1.1433033e+15 </wgt>
<wgt id='1647'> +1.1458812e+15 </wgt>
<wgt id='1648'> +1.1463374e+15 </wgt>
<wgt id='1649'> +1.1429878e+15 </wgt>
<wgt id='1650'> +1.1457844e+15 </wgt>
<wgt id='1651'> +1.1489703e+15 </wgt>
<wgt id='1652'> +1.1505017e+15 </wgt>
<wgt id='1653'> +1.1480711e+15 </wgt>
<wgt id='1654'> +1.1408824e+15 </wgt>
<wgt id='1655'> +1.1431223e+15 </wgt>
<wgt id='1656'> +1.1450413e+15 </wgt>
<wgt id='1657'> +1.1451700e+15 </wgt>
<wgt id='1658'> +1.1475488e+15 </wgt>
<wgt id='1659'> +1.1484995e+15 </wgt>
<wgt id='1660'> +1.1411738e+15 </wgt>
<wgt id='1661'> +1.1436686e+15 </wgt>
<wgt id='1662'> +1.1459196e+15 </wgt>
<wgt id='1663'> +1.1467401e+15 </wgt>
<wgt id='1664'> +1.1459570e+15 </wgt>
<wgt id='1665'> +1.1468549e+15 </wgt>
<wgt id='1666'> +1.1463780e+15 </wgt>
<wgt id='1667'> +1.1459616e+15 </wgt>
<wgt id='1668'> +1.1450021e+15 </wgt>
<wgt id='1669'> +1.1457825e+15 </wgt>
<wgt id='1670'> +1.1451941e+15 </wgt>
<wgt id='1671'> +1.1450579e+15 </wgt>
<wgt id='1672'> +1.1453402e+15 </wgt>
<wgt id='1673'> +1.1446314e+15 </wgt>
<wgt id='1674'> +1.1449992e+15 </wgt>
<wgt id='1675'> +1.1462428e+15 </wgt>
<wgt id='1676'> +1.1454619e+15 </wgt>
<wgt id='1677'> +1.1462917e+15 </wgt>
<wgt id='1678'> +1.1467416e+15 </wgt>
<wgt id='1679'> +1.1454793e+15 </wgt>
<wgt id='1680'> +1.1459785e+15 </wgt>
<wgt id='1681'> +1.1464449e+15 </wgt>
<wgt id='1682'> +1.1433665e+15 </wgt>
<wgt id='1683'> +1.1446267e+15 </wgt>
<wgt id='1684'> +1.1457069e+15 </wgt>
<wgt id='1685'> +1.1439702e+15 </wgt>
<wgt id='1686'> +1.1444341e+15 </wgt>
<wgt id='1687'> +1.1449567e+15 </wgt>
<wgt id='1688'> +1.1462604e+15 </wgt>
<wgt id='1689'> +1.1434923e+15 </wgt>
<wgt id='1690'> +1.1460529e+15 </wgt>
<wgt id='1691'> +1.1461081e+15 </wgt>
<wgt id='1692'> +1.1460982e+15 </wgt>
<wgt id='1693'> +1.1460075e+15 </wgt>
<wgt id='1694'> +1.1465476e+15 </wgt>
<wgt id='1695'> +1.1454914e+15 </wgt>
<wgt id='1696'> +1.1453341e+15 </wgt>
<wgt id='1697'> +1.1457577e+15 </wgt>
<wgt id='1698'> +1.1458499e+15 </wgt>
<wgt id='1699'> +1.1450177e+15 </wgt>
<wgt id='1700'> +1.1459802e+15 </wgt>
<wgt id='1701'> +1.1453963e+15 </wgt>
<wgt id='1702'> +1.1462195e+15 </wgt>
<wgt id='1703'> +1.1455052e+15 </wgt>
<wgt id='1704'> +1.1452592e+15 </wgt>
<wgt id='1705'> +1.1460970e+15 </wgt>
<wgt id='1706'> +1.1452113e+15 </wgt>
<wgt id='1707'> +1.1459512e+15 </wgt>
<wgt id='1708'> +1.1450483e+15 </wgt>
<wgt id='1709'> +1.1468965e+15 </wgt>
<wgt id='1710'> +1.1449853e+15 </wgt>
<wgt id='1711'> +1.1460323e+15 </wgt>
<wgt id='1712'> +1.1454123e+15 </wgt>
<wgt id='1713'> +1.1577193e+15 </wgt>
<wgt id='1714'> +1.1389892e+15 </wgt>
<wgt id='1715'> +1.3650919e+15 </wgt>
<wgt id='1716'> +1.3424141e+15 </wgt>
<wgt id='1717'> +1.4188847e+15 </wgt>
<wgt id='1718'> +1.3690316e+15 </wgt>
<wgt id='1719'> +1.3761545e+15 </wgt>
<wgt id='1720'> +1.3759893e+15 </wgt>
<wgt id='1721'> +1.4048951e+15 </wgt>
<wgt id='1722'> +1.3517147e+15 </wgt>
<wgt id='1723'> +1.3836571e+15 </wgt>
<wgt id='1724'> +1.3745773e+15 </wgt>
<wgt id='1725'> +1.3786599e+15 </wgt>
<wgt id='1726'> +1.3581743e+15 </wgt>
<wgt id='1727'> +1.3758170e+15 </wgt>
<wgt id='1728'> +1.3567315e+15 </wgt>
<wgt id='1729'> +1.3571499e+15 </wgt>
<wgt id='1730'> +1.3825065e+15 </wgt>
<wgt id='1731'> +1.4096957e+15 </wgt>
<wgt id='1732'> +1.3627850e+15 </wgt>
<wgt id='1733'> +1.3590598e+15 </wgt>
<wgt id='1734'> +1.4144868e+15 </wgt>
<wgt id='1735'> +1.3571919e+15 </wgt>
<wgt id='1736'> +1.3840094e+15 </wgt>
<wgt id='1737'> +1.3205141e+15 </wgt>
<wgt id='1738'> +1.3669291e+15 </wgt>
<wgt id='1739'> +1.4143238e+15 </wgt>
<wgt id='1740'> +1.3401594e+15 </wgt>
<wgt id='1741'> +1.3366890e+15 </wgt>
<wgt id='1742'> +1.3668022e+15 </wgt>
<wgt id='1743'> +1.3505359e+15 </wgt>
<wgt id='1744'> +1.3708851e+15 </wgt>
<wgt id='1745'> +1.3939124e+15 </wgt>
<wgt id='1746'> +1.3466546e+15 </wgt>
<wgt id='1747'> +1.3293341e+15 </wgt>
<wgt id='1748'> +1.3438564e+15 </wgt>
<wgt id='1749'> +1.3156592e+15 </wgt>
<wgt id='1750'> +1.3228997e+15 </wgt>
<wgt id='1751'> +1.3852279e+15 </wgt>
<wgt id='1752'> +1.4270495e+15 </wgt>
<wgt id='1753'> +1.3693705e+15 </wgt>
<wgt id='1754'> +1.3856165e+15 </wgt>
<wgt id='1755'> +1.3529613e+15 </wgt>
<wgt id='1756'> +1.4297384e+15 </wgt>
<wgt id='1757'> +1.3952016e+15 </wgt>
<wgt id='1758'> +1.3474502e+15 </wgt>
<wgt id='1759'> +1.3510894e+15 </wgt>
<wgt id='1760'> +1.3800774e+15 </wgt>
<wgt id='1761'> +1.3929943e+15 </wgt>
<wgt id='1762'> +1.3758170e+15 </wgt>
<wgt id='1763'> +1.3880159e+15 </wgt>
<wgt id='1764'> +1.3469940e+15 </wgt>
<wgt id='1765'> +1.3427693e+15 </wgt>
<wgt id='1766'> +1.3500223e+15 </wgt>
<wgt id='1767'> +1.3327526e+15 </wgt>
<wgt id='1768'> +1.3913388e+15 </wgt>
<wgt id='1769'> +1.3466401e+15 </wgt>
<wgt id='1770'> +1.3670127e+15 </wgt>
<wgt id='1771'> +1.3668862e+15 </wgt>
<wgt id='1772'> +1.3440260e+15 </wgt>
<wgt id='1773'> +1.3485522e+15 </wgt>
<wgt id='1774'> +1.3576119e+15 </wgt>
<wgt id='1775'> +1.3647235e+15 </wgt>
<wgt id='1776'> +1.3729775e+15 </wgt>
<wgt id='1777'> +1.3811470e+15 </wgt>
<wgt id='1778'> +1.3291409e+15 </wgt>
<wgt id='1779'> +1.3564726e+15 </wgt>
<wgt id='1780'> +1.3664508e+15 </wgt>
<wgt id='1781'> +1.3627245e+15 </wgt>
<wgt id='1782'> +1.3887724e+15 </wgt>
<wgt id='1783'> +1.3523097e+15 </wgt>
<wgt id='1784'> +1.3389171e+15 </wgt>
<wgt id='1785'> +1.3638056e+15 </wgt>
<wgt id='1786'> +1.3955910e+15 </wgt>
<wgt id='1787'> +1.3406412e+15 </wgt>
<wgt id='1788'> +1.3658473e+15 </wgt>
<wgt id='1789'> +1.3733254e+15 </wgt>
<wgt id='1790'> +1.3514854e+15 </wgt>
<wgt id='1791'> +1.3787779e+15 </wgt>
<wgt id='1792'> +1.3711891e+15 </wgt>
<wgt id='1793'> +1.3412771e+15 </wgt>
<wgt id='1794'> +1.3638965e+15 </wgt>
<wgt id='1795'> +1.3536193e+15 </wgt>
<wgt id='1796'> +1.3511565e+15 </wgt>
<wgt id='1797'> +1.3620150e+15 </wgt>
<wgt id='1798'> +1.4002908e+15 </wgt>
<wgt id='1799'> +1.3377030e+15 </wgt>
<wgt id='1800'> +1.3957545e+15 </wgt>
<wgt id='1801'> +1.3506751e+15 </wgt>
<wgt id='1802'> +1.3611421e+15 </wgt>
<wgt id='1803'> +1.3646468e+15 </wgt>
<wgt id='1804'> +1.3540157e+15 </wgt>
<wgt id='1805'> +1.3577123e+15 </wgt>
<wgt id='1806'> +1.3683446e+15 </wgt>
<wgt id='1807'> +1.3840908e+15 </wgt>
<wgt id='1808'> +1.3658386e+15 </wgt>
<wgt id='1809'> +1.3832862e+15 </wgt>
<wgt id='1810'> +1.3672336e+15 </wgt>
<wgt id='1811'> +1.3415640e+15 </wgt>
<wgt id='1812'> +1.3202051e+15 </wgt>
<wgt id='1813'> +1.3546941e+15 </wgt>
<wgt id='1814'> +1.3524016e+15 </wgt>
<wgt id='1815'> +1.3387708e+15 </wgt>
<wgt id='1816'> +1.4182033e+15 </wgt>
<wgt id='1817'> +1.4474517e+15 </wgt>
<wgt id='1818'> +1.4489081e+15 </wgt>
<wgt id='1819'> +1.3943745e+15 </wgt>
<wgt id='1820'> +1.3754646e+15 </wgt>
<wgt id='1821'> +1.4510320e+15 </wgt>
<wgt id='1822'> +1.4379115e+15 </wgt>
<wgt id='1823'> +1.4160090e+15 </wgt>
<wgt id='1824'> +1.4587529e+15 </wgt>
<wgt id='1825'> +1.3825598e+15 </wgt>
<wgt id='1826'> +1.4105536e+15 </wgt>
<wgt id='1827'> +1.3981656e+15 </wgt>
<wgt id='1828'> +1.4248687e+15 </wgt>
<wgt id='1829'> +1.4748343e+15 </wgt>
<wgt id='1830'> +1.4410194e+15 </wgt>
<wgt id='1831'> +1.4710490e+15 </wgt>
<wgt id='1832'> +1.4310945e+15 </wgt>
<wgt id='1833'> +1.5149954e+15 </wgt>
<wgt id='1834'> +1.4687708e+15 </wgt>
<wgt id='1835'> +1.4064787e+15 </wgt>
<wgt id='1836'> +1.4169721e+15 </wgt>
<wgt id='1837'> +1.3973739e+15 </wgt>
<wgt id='1838'> +1.3723552e+15 </wgt>
<wgt id='1839'> +1.4132146e+15 </wgt>
<wgt id='1840'> +1.3430831e+15 </wgt>
<wgt id='1841'> +1.4158417e+15 </wgt>
<wgt id='1842'> +1.3830171e+15 </wgt>
<wgt id='1843'> +1.5001969e+15 </wgt>
<wgt id='1844'> +1.4522375e+15 </wgt>
<wgt id='1845'> +1.4530779e+15 </wgt>
<wgt id='1846'> +1.3884386e+15 </wgt>
<wgt id='1847'> +1.3839863e+15 </wgt>
<wgt id='1848'> +1.3816192e+15 </wgt>
<wgt id='1849'> +1.3928697e+15 </wgt>
<wgt id='1850'> +1.3347788e+15 </wgt>
<wgt id='1851'> +1.4136522e+15 </wgt>
<wgt id='1852'> +1.4172588e+15 </wgt>
<wgt id='1853'> +1.4729582e+15 </wgt>
<wgt id='1854'> +1.4359824e+15 </wgt>
<wgt id='1855'> +1.4101171e+15 </wgt>
<wgt id='1856'> +1.3874289e+15 </wgt>
<wgt id='1857'> +1.4057056e+15 </wgt>
<wgt id='1858'> +1.3891655e+15 </wgt>
<wgt id='1859'> +1.3528719e+15 </wgt>
<wgt id='1860'> +1.3812891e+15 </wgt>
<wgt id='1861'> +1.3880675e+15 </wgt>
<wgt id='1862'> +1.3741604e+15 </wgt>
<wgt id='1863'> +1.4500555e+15 </wgt>
<wgt id='1864'> +1.4442590e+15 </wgt>
<wgt id='1865'> +1.4561363e+15 </wgt>
<wgt id='1866'> +1.4211212e+15 </wgt>
<wgt id='1867'> +1.3955965e+15 </wgt>
<wgt id='1868'> +1.4072361e+15 </wgt>
<wgt id='1869'> +1.3527091e+15 </wgt>
<wgt id='1870'> +1.4554177e+15 </wgt>
<wgt id='1871'> +1.3995927e+15 </wgt>
<wgt id='1872'> +1.4746500e+15 </wgt>
<wgt id='1873'> +1.4326399e+15 </wgt>
<wgt id='1874'> +1.4215920e+15 </wgt>
<wgt id='1875'> +1.4293748e+15 </wgt>
<wgt id='1876'> +1.4134882e+15 </wgt>
<wgt id='1877'> +1.4324280e+15 </wgt>
<wgt id='1878'> +1.4043480e+15 </wgt>
<wgt id='1879'> +1.3948265e+15 </wgt>
<wgt id='1880'> +1.4810727e+15 </wgt>
<wgt id='1881'> +1.3126991e+15 </wgt>
<wgt id='1882'> +1.4029753e+15 </wgt>
<wgt id='1883'> +1.4577388e+15 </wgt>
<wgt id='1884'> +1.3895757e+15 </wgt>
<wgt id='1885'> +1.4113018e+15 </wgt>
<wgt id='1886'> +1.4279096e+15 </wgt>
<wgt id='1887'> +1.3669264e+15 </wgt>
<wgt id='1888'> +1.4099376e+15 </wgt>
<wgt id='1889'> +1.4363329e+15 </wgt>
<wgt id='1890'> +1.3989264e+15 </wgt>
<wgt id='1891'> +1.4481240e+15 </wgt>
<wgt id='1892'> +1.3454120e+15 </wgt>
<wgt id='1893'> +1.3782817e+15 </wgt>
<wgt id='1894'> +1.4380833e+15 </wgt>
<wgt id='1895'> +1.4240464e+15 </wgt>
<wgt id='1896'> +1.4176014e+15 </wgt>
<wgt id='1897'> +1.3631206e+15 </wgt>
<wgt id='1898'> +1.4155258e+15 </wgt>
<wgt id='1899'> +1.4288907e+15 </wgt>
<wgt id='1900'> +1.4343397e+15 </wgt>
<wgt id='1901'> +1.4501059e+15 </wgt>
<wgt id='1902'> +1.4456052e+15 </wgt>
<wgt id='1903'> +1.4160942e+15 </wgt>
<wgt id='1904'> +1.4375843e+15 </wgt>
<wgt id='1905'> +1.4515483e+15 </wgt>
<wgt id='1906'> +1.4040867e+15 </wgt>
<wgt id='1907'> +1.4344685e+15 </wgt>
<wgt id='1908'> +1.3863240e+15 </wgt>
<wgt id='1909'> +1.4643435e+15 </wgt>
<wgt id='1910'> +1.4061506e+15 </wgt>
<wgt id='1911'> +1.5211294e+15 </wgt>
<wgt id='1912'> +1.3713651e+15 </wgt>
<wgt id='1913'> +1.4207096e+15 </wgt>
<wgt id='1914'> +1.3615665e+15 </wgt>
<wgt id='1915'> +1.4591232e+15 </wgt>
<wgt id='1916'> +1.5040184e+15 </wgt>
<wgt id='1917'> +1.4174925e+15 </wgt>
<wgt id='1918'> +1.1530987e+15 </wgt>
<wgt id='1919'> +1.4182033e+15 </wgt>
<wgt id='1920'> +1.4474517e+15 </wgt>
<wgt id='1921'> +1.4489081e+15 </wgt>
<wgt id='1922'> +1.3943745e+15 </wgt>
<wgt id='1923'> +1.3754646e+15 </wgt>
<wgt id='1924'> +1.4510320e+15 </wgt>
<wgt id='1925'> +1.4379115e+15 </wgt>
<wgt id='1926'> +1.4160090e+15 </wgt>
<wgt id='1927'> +1.4587529e+15 </wgt>
<wgt id='1928'> +1.3825598e+15 </wgt>
<wgt id='1929'> +1.4105536e+15 </wgt>
<wgt id='1930'> +1.3981656e+15 </wgt>
<wgt id='1931'> +1.4248687e+15 </wgt>
<wgt id='1932'> +1.4748343e+15 </wgt>
<wgt id='1933'> +1.4410194e+15 </wgt>
<wgt id='1934'> +1.4710490e+15 </wgt>
<wgt id='1935'> +1.4310945e+15 </wgt>
<wgt id='1936'> +1.5149954e+15 </wgt>
<wgt id='1937'> +1.4687708e+15 </wgt>
<wgt id='1938'> +1.4064787e+15 </wgt>
<wgt id='1939'> +1.4169721e+15 </wgt>
<wgt id='1940'> +1.3973739e+15 </wgt>
<wgt id='1941'> +1.3723552e+15 </wgt>
<wgt id='1942'> +1.4132146e+15 </wgt>
<wgt id='1943'> +1.3430831e+15 </wgt>
<wgt id='1944'> +1.4158417e+15 </wgt>
<wgt id='1945'> +1.3830171e+15 </wgt>
<wgt id='1946'> +1.5001969e+15 </wgt>
<wgt id='1947'> +1.4522375e+15 </wgt>
<wgt id='1948'> +1.4530779e+15 </wgt>
<wgt id='1949'> +1.3884386e+15 </wgt>
<wgt id='1950'> +1.3839863e+15 </wgt>
<wgt id='1951'> +1.3816192e+15 </wgt>
<wgt id='1952'> +1.3928697e+15 </wgt>
<wgt id='1953'> +1.3347788e+15 </wgt>
<wgt id='1954'> +1.4136522e+15 </wgt>
<wgt id='1955'> +1.4172588e+15 </wgt>
<wgt id='1956'> +1.4729582e+15 </wgt>
<wgt id='1957'> +1.4359824e+15 </wgt>
<wgt id='1958'> +1.4101171e+15 </wgt>
<wgt id='1959'> +1.3874289e+15 </wgt>
<wgt id='1960'> +1.4057056e+15 </wgt>
<wgt id='1961'> +1.3891655e+15 </wgt>
<wgt id='1962'> +1.3528719e+15 </wgt>
<wgt id='1963'> +1.3812891e+15 </wgt>
<wgt id='1964'> +1.3880675e+15 </wgt>
<wgt id='1965'> +1.3741604e+15 </wgt>
<wgt id='1966'> +1.4500555e+15 </wgt>
<wgt id='1967'> +1.4442590e+15 </wgt>
<wgt id='1968'> +1.4561363e+15 </wgt>
<wgt id='1969'> +1.4211212e+15 </wgt>
<wgt id='1970'> +1.3955965e+15 </wgt>
<wgt id='1971'> +1.4072361e+15 </wgt>
<wgt id='1972'> +1.3527091e+15 </wgt>
<wgt id='1973'> +1.4554177e+15 </wgt>
<wgt id='1974'> +1.3995927e+15 </wgt>
<wgt id='1975'> +1.4746500e+15 </wgt>
<wgt id='1976'> +1.4326399e+15 </wgt>
<wgt id='1977'> +1.4215920e+15 </wgt>
<wgt id='1978'> +1.4293748e+15 </wgt>
<wgt id='1979'> +1.4134882e+15 </wgt>
<wgt id='1980'> +1.4324280e+15 </wgt>
<wgt id='1981'> +1.4043480e+15 </wgt>
<wgt id='1982'> +1.3948265e+15 </wgt>
<wgt id='1983'> +1.4810727e+15 </wgt>
<wgt id='1984'> +1.3126991e+15 </wgt>
<wgt id='1985'> +1.4029753e+15 </wgt>
<wgt id='1986'> +1.4577388e+15 </wgt>
<wgt id='1987'> +1.3895757e+15 </wgt>
<wgt id='1988'> +1.4113018e+15 </wgt>
<wgt id='1989'> +1.4279096e+15 </wgt>
<wgt id='1990'> +1.3669264e+15 </wgt>
<wgt id='1991'> +1.4099376e+15 </wgt>
<wgt id='1992'> +1.4363329e+15 </wgt>
<wgt id='1993'> +1.3989264e+15 </wgt>
<wgt id='1994'> +1.4481240e+15 </wgt>
<wgt id='1995'> +1.3454120e+15 </wgt>
<wgt id='1996'> +1.3782817e+15 </wgt>
<wgt id='1997'> +1.4380833e+15 </wgt>
<wgt id='1998'> +1.4240464e+15 </wgt>
<wgt id='1999'> +1.4176014e+15 </wgt>
<wgt id='2000'> +1.3631206e+15 </wgt>
<wgt id='2001'> +1.4155258e+15 </wgt>
<wgt id='2002'> +1.4288907e+15 </wgt>
<wgt id='2003'> +1.4343397e+15 </wgt>
<wgt id='2004'> +1.4501059e+15 </wgt>
<wgt id='2005'> +1.4456052e+15 </wgt>
<wgt id='2006'> +1.4160942e+15 </wgt>
<wgt id='2007'> +1.4375843e+15 </wgt>
<wgt id='2008'> +1.4515483e+15 </wgt>
<wgt id='2009'> +1.4040867e+15 </wgt>
<wgt id='2010'> +1.4344685e+15 </wgt>
<wgt id='2011'> +1.3863240e+15 </wgt>
<wgt id='2012'> +1.4643435e+15 </wgt>
<wgt id='2013'> +1.4061506e+15 </wgt>
<wgt id='2014'> +1.5211294e+15 </wgt>
<wgt id='2015'> +1.3713651e+15 </wgt>
<wgt id='2016'> +1.4207096e+15 </wgt>
<wgt id='2017'> +1.3615665e+15 </wgt>
<wgt id='2018'> +1.4591232e+15 </wgt>
<wgt id='2019'> +1.5040184e+15 </wgt>
<wgt id='2020'> +1.4261844e+15 </wgt>
<wgt id='2021'> +1.4137835e+15 </wgt>
<wgt id='2022'> +1.3869492e+15 </wgt>
</rwgt>
</event>
<event>
 9      1 +1.3250000e+15 1.00000400e+03 7.81738600e-03 8.18908500e-02
       21 -1    0    0  502  501 +0.0000000000e+00 +0.0000000000e+00 +5.6840184151e+02 5.6840184151e+02 0.0000000000e+00 0.0000e+00 1.0000e+00
       21 -1    0    0  501  502 -0.0000000000e+00 -0.0000000000e+00 -4.3983311348e+02 4.3983311348e+02 0.0000000000e+00 0.0000e+00 1.0000e+00
       45  2    1    2    0    0 +2.8421709430e-14 +0.0000000000e+00 +1.2856872803e+02 1.0082349550e+03 1.0000039033e+03 0.0000e+00 0.0000e+00
       25  2    3    3    0    0 +1.2295984923e+02 +1.3957363812e+02 -3.8916677738e+02 4.4908395869e+02 1.2500278540e+02 0.0000e+00 0.0000e+00
       35  2    3    3    0    0 -1.2295984923e+02 -1.3957363812e+02 +5.1773550541e+02 5.5915099629e+02 9.9999290571e+01 0.0000e+00 0.0000e+00
       22  1    5    5    0    0 -1.2985897525e+02 -1.0729660653e+02 +4.8160096855e+02 5.1021114073e+02 0.0000000000e+00 0.0000e+00 1.0000e+00
       22  1    5    5    0    0 +6.8991260136e+00 -3.2277031588e+01 +3.6134536862e+01 4.8939855559e+01 0.0000000000e+00 0.0000e+00 1.0000e+00
      -15  1    4    4    0    0 +1.2075181513e+02 +1.5739689056e+02 -3.8039004061e+02 4.2901576048e+02 1.7770000000e+00 0.0000e+00 1.0000e+00
       15  1    4    4    0    0 +2.2080341020e+00 -1.7823252443e+01 -8.7767367712e+00 2.0068198215e+01 1.7770000000e+00 0.0000e+00 1.0000e+00
<mgrwt>
<rscale>  0 0.10000039E+04</rscale>
<asrwt>0</asrwt>
<pdfrwt beam="1">  1       21 0.87446437E-01 0.10000039E+04</pdfrwt>
<pdfrwt beam="2">  1       21 0.67666633E-01 0.10000039E+04</pdfrwt>
<totfact> 0.21058735E+03</totfact>
</mgrwt>
<rwgt>
<wgt id='1001'> +1.3250000e+15 </wgt>
<wgt id='1002'> +1.4976606e+15 </wgt>
<wgt id='1003'> +1.4976485e+15 </wgt>
<wgt id='1004'> +1.6613103e+15 </wgt>
<wgt id='1005'> +1.3250000e+15 </wgt>
<wgt id='1006'> +1.3250000e+15 </wgt>
<wgt id='1007'> +1.4976606e+15 </wgt>
<wgt id='1008'> +1.4976485e+15 </wgt>
<wgt id='1009'> +1.6613103e+15 </wgt>
<wgt id='1010'> +1.3250000e+15 </wgt>
<wgt id='1011'> +1.3250000e+15 </wgt>
<wgt id='1012'> +1.4976606e+15 </wgt>
<wgt id='1013'> +1.4976485e+15 </wgt>
<wgt id='1014'> +1.6613103e+15 </wgt>
<wgt id='1015'> +1.3250000e+15 </wgt>
<wgt id='1016'> +1.2096539e+15 </wgt>
<wgt id='1017'> +1.3580505e+15 </wgt>
<wgt id='1018'> +1.3580401e+15 </wgt>
<wgt id='1019'> +1.4976485e+15 </wgt>
<wgt id='1020'> +1.2096539e+15 </wgt>
<wgt id='1021'> +1.2096539e+15 </wgt>
<wgt id='1022'> +1.3580505e+15 </wgt>
<wgt id='1023'> +1.3580401e+15 </wgt>
<wgt id='1024'> +1.4976485e+15 </wgt>
<wgt id='1025'> +1.2096539e+15 </wgt>
<wgt id='1026'> +1.2096539e+15 </wgt>
<wgt id='1027'> +1.3580505e+15 </wgt>
<wgt id='1028'> +1.3580401e+15 </wgt>
<wgt id='1029'> +1.4976485e+15 </wgt>
<wgt id='1030'> +1.2096539e+15 </wgt>
<wgt id='1031'> +1.4594052e+15 </wgt>
<wgt id='1032'> +1.6613244e+15 </wgt>
<wgt id='1033'> +1.6613103e+15 </wgt>
<wgt id='1034'> +1.8541335e+15 </wgt>
<wgt id='1035'> +1.4594052e+15 </wgt>
<wgt id='1036'> +1.4594052e+15 </wgt>
<wgt id='1037'> +1.6613244e+15 </wgt>
<wgt id='1038'> +1.6613103e+15 </wgt>
<wgt id='1039'> +1.8541335e+15 </wgt>
<wgt id='1040'> +1.4594052e+15 </wgt>
<wgt id='1041'> +1.4594052e+15 </wgt>
<wgt id='1042'> +1.6613244e+15 </wgt>
<wgt id='1043'> +1.6613103e+15 </wgt>
<wgt id='1044'> +1.8541335e+15 </wgt>
<wgt id='1045'> +1.4594052e+15 </wgt>
<wgt id='1046'> +1.3250000e+15 </wgt>
<wgt id='1047'> +1.3250000e+15 </wgt>
<wgt id='1048'> +1.3250000e+15 </wgt>
<wgt id='1049'> +1.3210014e+15 </wgt>
<wgt id='1050'> +1.3231053e+15 </wgt>
<wgt id='1051'> +1.3279676e+15 </wgt>
<wgt id='1052'> +1.3270086e+15 </wgt>
<wgt id='1053'> +1.3205061e+15 </wgt>
<wgt id='1054'> +1.3264023e+15 </wgt>
<wgt id='1055'> +1.3201048e+15 </wgt>
<wgt id='1056'> +1.3203363e+15 </wgt>
<wgt id='1057'> +1.3256150e+15 </wgt>
<wgt id='1058'> +1.3237696e+15 </wgt>
<wgt id='1059'> +1.3321682e+15 </wgt>
<wgt id='1060'> +1.3233398e+15 </wgt>
<wgt id='1061'> +1.3286636e+15 </wgt>
<wgt id='1062'> +1.3287693e+15 </wgt>
<wgt id='1063'> +1.3273845e+15 </wgt>
<wgt id='1064'> +1.3297488e+15 </wgt>
<wgt id='1065'> +1.3323946e+15 </wgt>
<wgt id='1066'> +1.3193437e+15 </wgt>
<wgt id='1067'> +1.3115600e+15 </wgt>
<wgt id='1068'> +1.3283701e+15 </wgt>
<wgt id='1069'> +1.3194223e+15 </wgt>
<wgt id='1070'> +1.3274590e+15 </wgt>
<wgt id='1071'> +1.3298914e+15 </wgt>
<wgt id='1072'> +1.3188563e+15 </wgt>
<wgt id='1073'> +1.3245839e+15 </wgt>
<wgt id='1074'> +1.3224344e+15 </wgt>
<wgt id='1075'> +1.3230392e+15 </wgt>
<wgt id='1076'> +1.3255611e+15 </wgt>
<wgt id='1077'> +1.3193397e+15 </wgt>
<wgt id='1078'> +1.3271219e+15 </wgt>
<wgt id='1079'> +1.3187289e+15 </wgt>
<wgt id='1080'> +1.3252042e+15 </wgt>
<wgt id='1081'> +1.3231397e+15 </wgt>
<wgt id='1082'> +1.3206848e+15 </wgt>
<wgt id='1083'> +1.3256064e+15 </wgt>
<wgt id='1084'> +1.3282021e+15 </wgt>
<wgt id='1085'> +1.3239891e+15 </wgt>
<wgt id='1086'> +1.3227098e+15 </wgt>
<wgt id='1087'> +1.3241426e+15 </wgt>
<wgt id='1088'> +1.3238150e+15 </wgt>
<wgt id='1089'> +1.3231442e+15 </wgt>
<wgt id='1090'> +1.3273716e+15 </wgt>
<wgt id='1091'> +1.3242887e+15 </wgt>
<wgt id='1092'> +1.3266062e+15 </wgt>
<wgt id='1093'> +1.3243371e+15 </wgt>
<wgt id='1094'> +1.3240182e+15 </wgt>
<wgt id='1095'> +1.3251517e+15 </wgt>
<wgt id='1096'> +1.3247109e+15 </wgt>
<wgt id='1097'> +1.3235169e+15 </wgt>
<wgt id='1098'> +1.3240094e+15 </wgt>
<wgt id='1099'> +1.3245309e+15 </wgt>
<wgt id='1100'> +1.3268519e+15 </wgt>
<wgt id='1101'> +1.3249412e+15 </wgt>
<wgt id='1102'> +1.3246803e+15 </wgt>
<wgt id='1103'> +1.3245588e+15 </wgt>
<wgt id='1104'> +1.3235236e+15 </wgt>
<wgt id='1105'> +1.3254488e+15 </wgt>
<wgt id='1106'> +1.3259079e+15 </wgt>
<wgt id='1107'> +1.3245450e+15 </wgt>
<wgt id='1108'> +1.3248548e+15 </wgt>
<wgt id='1109'> +1.3244229e+15 </wgt>
<wgt id='1110'> +1.3261602e+15 </wgt>
<wgt id='1111'> +1.3254481e+15 </wgt>
<wgt id='1112'> +1.3250148e+15 </wgt>
<wgt id='1113'> +1.3264807e+15 </wgt>
<wgt id='1114'> +1.3241419e+15 </wgt>
<wgt id='1115'> +1.3248784e+15 </wgt>
<wgt id='1116'> +1.3257181e+15 </wgt>
<wgt id='1117'> +1.3248549e+15 </wgt>
<wgt id='1118'> +1.3252340e+15 </wgt>
<wgt id='1119'> +1.3244884e+15 </wgt>
<wgt id='1120'> +1.3247470e+15 </wgt>
<wgt id='1121'> +1.3252579e+15 </wgt>
<wgt id='1122'> +1.3243705e+15 </wgt>
<wgt id='1123'> +1.3247503e+15 </wgt>
<wgt id='1124'> +1.3246117e+15 </wgt>
<wgt id='1125'> +1.3257426e+15 </wgt>
<wgt id='1126'> +1.3253250e+15 </wgt>
<wgt id='1127'> +1.3246017e+15 </wgt>
<wgt id='1128'> +1.3251984e+15 </wgt>
<wgt id='1129'> +1.3248504e+15 </wgt>
<wgt id='1130'> +1.3251025e+15 </wgt>
<wgt id='1131'> +1.3258596e+15 </wgt>
<wgt id='1132'> +1.3248781e+15 </wgt>
<wgt id='1133'> +1.3251924e+15 </wgt>
<wgt id='1134'> +1.3248609e+15 </wgt>
<wgt id='1135'> +1.3251855e+15 </wgt>
<wgt id='1136'> +1.3248538e+15 </wgt>
<wgt id='1137'> +1.3245288e+15 </wgt>
<wgt id='1138'> +1.3253863e+15 </wgt>
<wgt id='1139'> +1.3250273e+15 </wgt>
<wgt id='1140'> +1.3256367e+15 </wgt>
<wgt id='1141'> +1.3246227e+15 </wgt>
<wgt id='1142'> +1.3252813e+15 </wgt>
<wgt id='1143'> +1.3255357e+15 </wgt>
<wgt id='1144'> +1.3247261e+15 </wgt>
<wgt id='1145'> +1.3254069e+15 </wgt>
<wgt id='1146'> +1.3248497e+15 </wgt>
<wgt id='1147'> +1.3252039e+15 </wgt>
<wgt id='1148'> +1.3250000e+15 </wgt>
<wgt id='1149'> +1.3250000e+15 </wgt>
<wgt id='1150'> +1.3508973e+15 </wgt>
<wgt id='1151'> +1.3023443e+15 </wgt>
<wgt id='1152'> +1.2936283e+15 </wgt>
<wgt id='1153'> +1.3430451e+15 </wgt>
<wgt id='1154'> +1.3351288e+15 </wgt>
<wgt id='1155'> +1.3674810e+15 </wgt>
<wgt id='1156'> +1.3130506e+15 </wgt>
<wgt id='1157'> +1.3111764e+15 </wgt>
<wgt id='1158'> +1.3019744e+15 </wgt>
<wgt id='1159'> +1.3609436e+15 </wgt>
<wgt id='1160'> +1.3155273e+15 </wgt>
<wgt id='1161'> +1.3531395e+15 </wgt>
<wgt id='1162'> +1.3025536e+15 </wgt>
<wgt id='1163'> +1.3416260e+15 </wgt>
<wgt id='1164'> +1.2660999e+15 </wgt>
<wgt id='1165'> +1.3110505e+15 </wgt>
<wgt id='1166'> +1.3425632e+15 </wgt>
<wgt id='1167'> +1.3250095e+15 </wgt>
<wgt id='1168'> +1.2883121e+15 </wgt>
<wgt id='1169'> +1.2921589e+15 </wgt>
<wgt id='1170'> +1.2978073e+15 </wgt>
<wgt id='1171'> +1.2776388e+15 </wgt>
<wgt id='1172'> +1.2969580e+15 </wgt>
<wgt id='1173'> +1.3408535e+15 </wgt>
<wgt id='1174'> +1.3122198e+15 </wgt>
<wgt id='1175'> +1.2957153e+15 </wgt>
<wgt id='1176'> +1.3025948e+15 </wgt>
<wgt id='1177'> +1.3233690e+15 </wgt>
<wgt id='1178'> +1.3327813e+15 </wgt>
<wgt id='1179'> +1.3230355e+15 </wgt>
<wgt id='1180'> +1.3247354e+15 </wgt>
<wgt id='1181'> +1.3321441e+15 </wgt>
<wgt id='1182'> +1.3185150e+15 </wgt>
<wgt id='1183'> +1.3783437e+15 </wgt>
<wgt id='1184'> +1.2891136e+15 </wgt>
<wgt id='1185'> +1.3207619e+15 </wgt>
<wgt id='1186'> +1.2816154e+15 </wgt>
<wgt id='1187'> +1.3287230e+15 </wgt>
<wgt id='1188'> +1.3061825e+15 </wgt>
<wgt id='1189'> +1.3371291e+15 </wgt>
<wgt id='1190'> +1.3280989e+15 </wgt>
<wgt id='1191'> +1.3754634e+15 </wgt>
<wgt id='1192'> +1.3497765e+15 </wgt>
<wgt id='1193'> +1.3660484e+15 </wgt>
<wgt id='1194'> +1.3306344e+15 </wgt>
<wgt id='1195'> +1.3332771e+15 </wgt>
<wgt id='1196'> +1.3483863e+15 </wgt>
<wgt id='1197'> +1.3553197e+15 </wgt>
<wgt id='1198'> +1.2846101e+15 </wgt>
<wgt id='1199'> +1.3152442e+15 </wgt>
<wgt id='1200'> +1.3244835e+15 </wgt>
<wgt id='1201'> +1.3088760e+15 </wgt>
<wgt id='1202'> +1.3272228e+15 </wgt>
<wgt id='1203'> +1.3065000e+15 </wgt>
<wgt id='1204'> +1.3415969e+15 </wgt>
<wgt id='1205'> +1.3334908e+15 </wgt>
<wgt id='1206'> +1.3027655e+15 </wgt>
<wgt id='1207'> +1.3433546e+15 </wgt>
<wgt id='1208'> +1.2981664e+15 </wgt>
<wgt id='1209'> +1.3144351e+15 </wgt>
<wgt id='1210'> +1.3142878e+15 </wgt>
<wgt id='1211'> +1.3275933e+15 </wgt>
<wgt id='1212'> +1.3173223e+15 </wgt>
<wgt id='1213'> +1.3555437e+15 </wgt>
<wgt id='1214'> +1.3040590e+15 </wgt>
<wgt id='1215'> +1.3551888e+15 </wgt>
<wgt id='1216'> +1.3268621e+15 </wgt>
<wgt id='1217'> +1.3028800e+15 </wgt>
<wgt id='1218'> +1.3398238e+15 </wgt>
<wgt id='1219'> +1.3549987e+15 </wgt>
<wgt id='1220'> +1.2981888e+15 </wgt>
<wgt id='1221'> +1.2637857e+15 </wgt>
<wgt id='1222'> +1.3234037e+15 </wgt>
<wgt id='1223'> +1.2837927e+15 </wgt>
<wgt id='1224'> +1.3356011e+15 </wgt>
<wgt id='1225'> +1.3377426e+15 </wgt>
<wgt id='1226'> +1.3441413e+15 </wgt>
<wgt id='1227'> +1.2833518e+15 </wgt>
<wgt id='1228'> +1.3138119e+15 </wgt>
<wgt id='1229'> +1.3886378e+15 </wgt>
<wgt id='1230'> +1.3543124e+15 </wgt>
<wgt id='1231'> +1.3110505e+15 </wgt>
<wgt id='1232'> +1.3476130e+15 </wgt>
<wgt id='1233'> +1.3107048e+15 </wgt>
<wgt id='1234'> +1.2797032e+15 </wgt>
<wgt id='1235'> +1.3855751e+15 </wgt>
<wgt id='1236'> +1.3062071e+15 </wgt>
<wgt id='1237'> +1.3660819e+15 </wgt>
<wgt id='1238'> +1.3626858e+15 </wgt>
<wgt id='1239'> +1.3753874e+15 </wgt>
<wgt id='1240'> +1.3372952e+15 </wgt>
<wgt id='1241'> +1.3259357e+15 </wgt>
<wgt id='1242'> +1.3171080e+15 </wgt>
<wgt id='1243'> +1.3453346e+15 </wgt>
<wgt id='1244'> +1.3458345e+15 </wgt>
<wgt id='1245'> +1.3113783e+15 </wgt>
<wgt id='1246'> +1.3902054e+15 </wgt>
<wgt id='1247'> +1.3387630e+15 </wgt>
<wgt id='1248'> +1.2988200e+15 </wgt>
<wgt id='1249'> +1.3066890e+15 </wgt>
<wgt id='1250'> +1.3006639e+15 </wgt>
<wgt id='1251'> +1.2768113e+15 </wgt>
<wgt id='1252'> +1.3629304e+15 </wgt>
<wgt id='1253'> +1.3389566e+15 </wgt>
<wgt id='1254'> +1.3825011e+15 </wgt>
<wgt id='1255'> +1.1071475e+15 </wgt>
<wgt id='1256'> +1.1078278e+15 </wgt>
<wgt id='1257'> +1.1067795e+15 </wgt>
<wgt id='1258'> +1.1074351e+15 </wgt>
<wgt id='1259'> +1.1069911e+15 </wgt>
<wgt id='1260'> +1.1049063e+15 </wgt>
<wgt id='1261'> +1.1101923e+15 </wgt>
<wgt id='1262'> +1.1053402e+15 </wgt>
<wgt id='1263'> +1.1083428e+15 </wgt>
<wgt id='1264'> +1.1070639e+15 </wgt>
<wgt id='1265'> +1.1072611e+15 </wgt>
<wgt id='1266'> +1.1104310e+15 </wgt>
<wgt id='1267'> +1.1038690e+15 </wgt>
<wgt id='1268'> +1.1111111e+15 </wgt>
<wgt id='1269'> +1.1029011e+15 </wgt>
<wgt id='1270'> +1.0884525e+15 </wgt>
<wgt id='1271'> +1.1279044e+15 </wgt>
<wgt id='1272'> +1.1009398e+15 </wgt>
<wgt id='1273'> +1.1118449e+15 </wgt>
<wgt id='1274'> +1.1136564e+15 </wgt>
<wgt id='1275'> +1.0991951e+15 </wgt>
<wgt id='1276'> +1.1276541e+15 </wgt>
<wgt id='1277'> +1.0863300e+15 </wgt>
<wgt id='1278'> +1.0992183e+15 </wgt>
<wgt id='1279'> +1.1132780e+15 </wgt>
<wgt id='1280'> +1.1071511e+15 </wgt>
<wgt id='1281'> +1.1078384e+15 </wgt>
<wgt id='1282'> +1.1092535e+15 </wgt>
<wgt id='1283'> +1.1032696e+15 </wgt>
<wgt id='1284'> +1.1055148e+15 </wgt>
<wgt id='1285'> +1.1090434e+15 </wgt>
<wgt id='1286'> +1.1084184e+15 </wgt>
<wgt id='1287'> +1.1070652e+15 </wgt>
<wgt id='1288'> +1.1133438e+15 </wgt>
<wgt id='1289'> +1.1042187e+15 </wgt>
<wgt id='1290'> +1.1069376e+15 </wgt>
<wgt id='1291'> +1.1072219e+15 </wgt>
<wgt id='1292'> +1.1197082e+15 </wgt>
<wgt id='1293'> +1.0924339e+15 </wgt>
<wgt id='1294'> +1.1003707e+15 </wgt>
<wgt id='1295'> +1.1059435e+15 </wgt>
<wgt id='1296'> +1.3431755e+15 </wgt>
<wgt id='1297'> +1.3484850e+15 </wgt>
<wgt id='1298'> +1.3387410e+15 </wgt>
<wgt id='1299'> +1.3423251e+15 </wgt>
<wgt id='1300'> +1.3439584e+15 </wgt>
<wgt id='1301'> +1.3427925e+15 </wgt>
<wgt id='1302'> +1.3435046e+15 </wgt>
<wgt id='1303'> +1.3437449e+15 </wgt>
<wgt id='1304'> +1.3426732e+15 </wgt>
<wgt id='1305'> +1.3420128e+15 </wgt>
<wgt id='1306'> +1.3446928e+15 </wgt>
<wgt id='1307'> +1.3367422e+15 </wgt>
<wgt id='1308'> +1.3470057e+15 </wgt>
<wgt id='1309'> +1.3432418e+15 </wgt>
<wgt id='1310'> +1.3430852e+15 </wgt>
<wgt id='1311'> +1.3436890e+15 </wgt>
<wgt id='1312'> +1.3429627e+15 </wgt>
<wgt id='1313'> +1.3244284e+15 </wgt>
<wgt id='1314'> +1.3665032e+15 </wgt>
<wgt id='1315'> +1.3450753e+15 </wgt>
<wgt id='1316'> +1.3411417e+15 </wgt>
<wgt id='1317'> +1.3672038e+15 </wgt>
<wgt id='1318'> +1.3032941e+15 </wgt>
<wgt id='1319'> +1.3255638e+15 </wgt>
<wgt id='1320'> +1.3544511e+15 </wgt>
<wgt id='1321'> +1.3320105e+15 </wgt>
<wgt id='1322'> +1.3485549e+15 </wgt>
<wgt id='1323'> +1.3363731e+15 </wgt>
<wgt id='1324'> +1.3488357e+15 </wgt>
<wgt id='1325'> +1.3339501e+15 </wgt>
<wgt id='1326'> +1.3588036e+15 </wgt>
<wgt id='1327'> +1.3397571e+15 </wgt>
<wgt id='1328'> +1.3444558e+15 </wgt>
<wgt id='1329'> +1.3451735e+15 </wgt>
<wgt id='1330'> +1.3419242e+15 </wgt>
<wgt id='1331'> +1.3496450e+15 </wgt>
<wgt id='1332'> +1.3398628e+15 </wgt>
<wgt id='1333'> +1.3582669e+15 </wgt>
<wgt id='1334'> +1.3380707e+15 </wgt>
<wgt id='1335'> +1.3458937e+15 </wgt>
<wgt id='1336'> +1.3422953e+15 </wgt>
<wgt id='1337'> +1.3431755e+15 </wgt>
<wgt id='1338'> +1.3499745e+15 </wgt>
<wgt id='1339'> +1.3472455e+15 </wgt>
<wgt id='1340'> +1.3447448e+15 </wgt>
<wgt id='1341'> +1.3407768e+15 </wgt>
<wgt id='1342'> +1.3390314e+15 </wgt>
<wgt id='1343'> +1.3373637e+15 </wgt>
<wgt id='1344'> +1.3616885e+15 </wgt>
<wgt id='1345'> +1.3685243e+15 </wgt>
<wgt id='1346'> +1.3547404e+15 </wgt>
<wgt id='1347'> +1.3605918e+15 </wgt>
<wgt id='1348'> +1.3623750e+15 </wgt>
<wgt id='1349'> +1.3620025e+15 </wgt>
<wgt id='1350'> +1.3612300e+15 </wgt>
<wgt id='1351'> +1.3614764e+15 </wgt>
<wgt id='1352'> +1.3617605e+15 </wgt>
<wgt id='1353'> +1.3612115e+15 </wgt>
<wgt id='1354'> +1.3617751e+15 </wgt>
<wgt id='1355'> +1.3629372e+15 </wgt>
<wgt id='1356'> +1.3605657e+15 </wgt>
<wgt id='1357'> +1.3560457e+15 </wgt>
<wgt id='1358'> +1.3648620e+15 </wgt>
<wgt id='1359'> +1.3616137e+15 </wgt>
<wgt id='1360'> +1.3613332e+15 </wgt>
<wgt id='1361'> +1.3238487e+15 </wgt>
<wgt id='1362'> +1.3953315e+15 </wgt>
<wgt id='1363'> +1.3549619e+15 </wgt>
<wgt id='1364'> +1.3697576e+15 </wgt>
<wgt id='1365'> +1.3551489e+15 </wgt>
<wgt id='1366'> +1.3644213e+15 </wgt>
<wgt id='1367'> +1.3512886e+15 </wgt>
<wgt id='1368'> +1.3666082e+15 </wgt>
<wgt id='1369'> +1.3833362e+15 </wgt>
<wgt id='1370'> +1.3432317e+15 </wgt>
<wgt id='1371'> +1.3579328e+15 </wgt>
<wgt id='1372'> +1.3660539e+15 </wgt>
<wgt id='1373'> +1.3685421e+15 </wgt>
<wgt id='1374'> +1.3634905e+15 </wgt>
<wgt id='1375'> +1.3615625e+15 </wgt>
<wgt id='1376'> +1.3619872e+15 </wgt>
<wgt id='1377'> +1.3604910e+15 </wgt>
<wgt id='1378'> +1.3642095e+15 </wgt>
<wgt id='1379'> +1.3558566e+15 </wgt>
<wgt id='1380'> +1.3680287e+15 </wgt>
<wgt id='1381'> +1.3489531e+15 </wgt>
<wgt id='1382'> +1.3758764e+15 </wgt>
<wgt id='1383'> +1.3597701e+15 </wgt>
<wgt id='1384'> +1.3716232e+15 </wgt>
<wgt id='1385'> +1.3616885e+15 </wgt>
<wgt id='1386'> +1.3692468e+15 </wgt>
<wgt id='1387'> +1.3662601e+15 </wgt>
<wgt id='1388'> +1.3637198e+15 </wgt>
<wgt id='1389'> +1.3592923e+15 </wgt>
<wgt id='1390'> +1.3573129e+15 </wgt>
<wgt id='1391'> +1.3558341e+15 </wgt>
<wgt id='1392'> +1.3221236e+15 </wgt>
<wgt id='1393'> +1.3230602e+15 </wgt>
<wgt id='1394'> +1.3211257e+15 </wgt>
<wgt id='1395'> +1.3235599e+15 </wgt>
<wgt id='1396'> +1.3211256e+15 </wgt>
<wgt id='1397'> +1.3300927e+15 </wgt>
<wgt id='1398'> +1.3144107e+15 </wgt>
<wgt id='1399'> +1.3197884e+15 </wgt>
<wgt id='1400'> +1.3249891e+15 </wgt>
<wgt id='1401'> +1.3223847e+15 </wgt>
<wgt id='1402'> +1.3218012e+15 </wgt>
<wgt id='1403'> +1.3221666e+15 </wgt>
<wgt id='1404'> +1.3220314e+15 </wgt>
<wgt id='1405'> +1.3222903e+15 </wgt>
<wgt id='1406'> +1.3218963e+15 </wgt>
<wgt id='1407'> +1.3225865e+15 </wgt>
<wgt id='1408'> +1.3217406e+15 </wgt>
<wgt id='1409'> +1.3196093e+15 </wgt>
<wgt id='1410'> +1.3249256e+15 </wgt>
<wgt id='1411'> +1.3204433e+15 </wgt>
<wgt id='1412'> +1.3234680e+15 </wgt>
<wgt id='1413'> +1.3196787e+15 </wgt>
<wgt id='1414'> +1.3245797e+15 </wgt>
<wgt id='1415'> +1.3174253e+15 </wgt>
<wgt id='1416'> +1.3267403e+15 </wgt>
<wgt id='1417'> +1.3135532e+15 </wgt>
<wgt id='1418'> +1.3328096e+15 </wgt>
<wgt id='1419'> +1.3205456e+15 </wgt>
<wgt id='1420'> +1.3211473e+15 </wgt>
<wgt id='1421'> +1.3057803e+15 </wgt>
<wgt id='1422'> +1.3416886e+15 </wgt>
<wgt id='1423'> +1.2904787e+15 </wgt>
<wgt id='1424'> +1.3469702e+15 </wgt>
<wgt id='1425'> +1.3245204e+15 </wgt>
<wgt id='1426'> +1.3189949e+15 </wgt>
<wgt id='1427'> +1.3264832e+15 </wgt>
<wgt id='1428'> +1.3109912e+15 </wgt>
<wgt id='1429'> +1.3214377e+15 </wgt>
<wgt id='1430'> +1.3223182e+15 </wgt>
<wgt id='1431'> +1.3172803e+15 </wgt>
<wgt id='1432'> +1.3269712e+15 </wgt>
<wgt id='1433'> +1.3081151e+15 </wgt>
<wgt id='1434'> +1.3388263e+15 </wgt>
<wgt id='1435'> +1.3271771e+15 </wgt>
<wgt id='1436'> +1.3204595e+15 </wgt>
<wgt id='1437'> +1.3204183e+15 </wgt>
<wgt id='1438'> +1.3264393e+15 </wgt>
<wgt id='1439'> +1.3342680e+15 </wgt>
<wgt id='1440'> +1.3120486e+15 </wgt>
<wgt id='1441'> +1.3250199e+15 </wgt>
<wgt id='1442'> +1.3208563e+15 </wgt>
<wgt id='1443'> +1.3401972e+15 </wgt>
<wgt id='1444'> +1.3412077e+15 </wgt>
<wgt id='1445'> +1.3391834e+15 </wgt>
<wgt id='1446'> +1.3417155e+15 </wgt>
<wgt id='1447'> +1.3391311e+15 </wgt>
<wgt id='1448'> +1.3486577e+15 </wgt>
<wgt id='1449'> +1.3324270e+15 </wgt>
<wgt id='1450'> +1.3372731e+15 </wgt>
<wgt id='1451'> +1.3435418e+15 </wgt>
<wgt id='1452'> +1.3404034e+15 </wgt>
<wgt id='1453'> +1.3399347e+15 </wgt>
<wgt id='1454'> +1.3402510e+15 </wgt>
<wgt id='1455'> +1.3398424e+15 </wgt>
<wgt id='1456'> +1.3403885e+15 </wgt>
<wgt id='1457'> +1.3399733e+15 </wgt>
<wgt id='1458'> +1.3405442e+15 </wgt>
<wgt id='1459'> +1.3399845e+15 </wgt>
<wgt id='1460'> +1.3368534e+15 </wgt>
<wgt id='1461'> +1.3441966e+15 </wgt>
<wgt id='1462'> +1.3392794e+15 </wgt>
<wgt id='1463'> +1.3410210e+15 </wgt>
<wgt id='1464'> +1.3379935e+15 </wgt>
<wgt id='1465'> +1.3429913e+15 </wgt>
<wgt id='1466'> +1.3342080e+15 </wgt>
<wgt id='1467'> +1.3439469e+15 </wgt>
<wgt id='1468'> +1.3581418e+15 </wgt>
<wgt id='1469'> +1.3227713e+15 </wgt>
<wgt id='1470'> +1.3390392e+15 </wgt>
<wgt id='1471'> +1.3394113e+15 </wgt>
<wgt id='1472'> +1.3271242e+15 </wgt>
<wgt id='1473'> +1.3561524e+15 </wgt>
<wgt id='1474'> +1.3167791e+15 </wgt>
<wgt id='1475'> +1.3673951e+15 </wgt>
<wgt id='1476'> +1.3482828e+15 </wgt>
<wgt id='1477'> +1.3325414e+15 </wgt>
<wgt id='1478'> +1.3445685e+15 </wgt>
<wgt id='1479'> +1.3282176e+15 </wgt>
<wgt id='1480'> +1.3404010e+15 </wgt>
<wgt id='1481'> +1.3396683e+15 </wgt>
<wgt id='1482'> +1.3355065e+15 </wgt>
<wgt id='1483'> +1.3456056e+15 </wgt>
<wgt id='1484'> +1.3257309e+15 </wgt>
<wgt id='1485'> +1.3565239e+15 </wgt>
<wgt id='1486'> +1.3469886e+15 </wgt>
<wgt id='1487'> +1.3370823e+15 </wgt>
<wgt id='1488'> +1.3377826e+15 </wgt>
<wgt id='1489'> +1.3460712e+15 </wgt>
<wgt id='1490'> +1.3543286e+15 </wgt>
<wgt id='1491'> +1.3307805e+15 </wgt>
<wgt id='1492'> +1.3452487e+15 </wgt>
<wgt id='1493'> +1.3382846e+15 </wgt>
<wgt id='1494'> +1.3221236e+15 </wgt>
<wgt id='1495'> +1.3497729e+15 </wgt>
<wgt id='1496'> +1.3401972e+15 </wgt>
<wgt id='1497'> +1.3309421e+15 </wgt>
<wgt id='1498'> +1.3152412e+15 </wgt>
<wgt id='1499'> +1.3223792e+15 </wgt>
<wgt id='1500'> +1.3316563e+15 </wgt>
<wgt id='1501'> +1.3305614e+15 </wgt>
<wgt id='1502'> +1.3295397e+15 </wgt>
<wgt id='1503'> +1.3276889e+15 </wgt>
<wgt id='1504'> +1.3252490e+15 </wgt>
<wgt id='1505'> +1.3197006e+15 </wgt>
<wgt id='1506'> +1.3165470e+15 </wgt>
<wgt id='1507'> +1.3131748e+15 </wgt>
<wgt id='1508'> +1.3223792e+15 </wgt>
<wgt id='1509'> +1.3270026e+15 </wgt>
<wgt id='1510'> +1.3245426e+15 </wgt>
<wgt id='1511'> +1.3206017e+15 </wgt>
<wgt id='1512'> +1.3189240e+15 </wgt>
<wgt id='1513'> +1.3450047e+15 </wgt>
<wgt id='1514'> +1.3447806e+15 </wgt>
<wgt id='1515'> +1.3453441e+15 </wgt>
<wgt id='1516'> +1.3493294e+15 </wgt>
<wgt id='1517'> +1.3407544e+15 </wgt>
<wgt id='1518'> +1.3492698e+15 </wgt>
<wgt id='1519'> +1.3432749e+15 </wgt>
<wgt id='1520'> +1.3468986e+15 </wgt>
<wgt id='1521'> +1.3431683e+15 </wgt>
<wgt id='1522'> +1.3455976e+15 </wgt>
<wgt id='1523'> +1.3443349e+15 </wgt>
<wgt id='1524'> +1.3458714e+15 </wgt>
<wgt id='1525'> +1.3446263e+15 </wgt>
<wgt id='1526'> +1.3445740e+15 </wgt>
<wgt id='1527'> +1.3455739e+15 </wgt>
<wgt id='1528'> +1.3464699e+15 </wgt>
<wgt id='1529'> +1.3435828e+15 </wgt>
<wgt id='1530'> +1.3442940e+15 </wgt>
<wgt id='1531'> +1.3454576e+15 </wgt>
<wgt id='1532'> +1.3462183e+15 </wgt>
<wgt id='1533'> +1.3433741e+15 </wgt>
<wgt id='1534'> +1.3430009e+15 </wgt>
<wgt id='1535'> +1.3465048e+15 </wgt>
<wgt id='1536'> +1.3484582e+15 </wgt>
<wgt id='1537'> +1.3418567e+15 </wgt>
<wgt id='1538'> +1.3459150e+15 </wgt>
<wgt id='1539'> +1.3427159e+15 </wgt>
<wgt id='1540'> +1.3418035e+15 </wgt>
<wgt id='1541'> +1.3446775e+15 </wgt>
<wgt id='1542'> +1.3566991e+15 </wgt>
<wgt id='1543'> +1.3162790e+15 </wgt>
<wgt id='1544'> +1.3350064e+15 </wgt>
<wgt id='1545'> +1.3656767e+15 </wgt>
<wgt id='1546'> +1.3496252e+15 </wgt>
<wgt id='1547'> +1.3355744e+15 </wgt>
<wgt id='1548'> +1.3285187e+15 </wgt>
<wgt id='1549'> +1.3518618e+15 </wgt>
<wgt id='1550'> +1.3438413e+15 </wgt>
<wgt id='1551'> +1.3452735e+15 </wgt>
<wgt id='1552'> +1.3381340e+15 </wgt>
<wgt id='1553'> +1.3504167e+15 </wgt>
<wgt id='1554'> +1.3534330e+15 </wgt>
<wgt id='1555'> +1.3330402e+15 </wgt>
<wgt id='1556'> +1.3460910e+15 </wgt>
<wgt id='1557'> +1.3387827e+15 </wgt>
<wgt id='1558'> +1.3316693e+15 </wgt>
<wgt id='1559'> +1.3569095e+15 </wgt>
<wgt id='1560'> +1.3535481e+15 </wgt>
<wgt id='1561'> +1.3415275e+15 </wgt>
<wgt id='1562'> +1.3404035e+15 </wgt>
<wgt id='1563'> +1.3496502e+15 </wgt>
<wgt id='1564'> +1.3450047e+15 </wgt>
<wgt id='1565'> +1.3490769e+15 </wgt>
<wgt id='1566'> +1.3410119e+15 </wgt>
<wgt id='1567'> +1.3446666e+15 </wgt>
<wgt id='1568'> +1.3615154e+15 </wgt>
<wgt id='1569'> +1.3585950e+15 </wgt>
<wgt id='1570'> +1.3552105e+15 </wgt>
<wgt id='1571'> +1.3519834e+15 </wgt>
<wgt id='1572'> +1.3485609e+15 </wgt>
<wgt id='1573'> +1.3397487e+15 </wgt>
<wgt id='1574'> +1.3346210e+15 </wgt>
<wgt id='1575'> +1.3302794e+15 </wgt>
<wgt id='1576'> +1.3446666e+15 </wgt>
<wgt id='1577'> +1.3486623e+15 </wgt>
<wgt id='1578'> +1.3464982e+15 </wgt>
<wgt id='1579'> +1.3431279e+15 </wgt>
<wgt id='1580'> +1.3417381e+15 </wgt>
<wgt id='1581'> +1.3622470e+15 </wgt>
<wgt id='1582'> +1.3646584e+15 </wgt>
<wgt id='1583'> +1.3753822e+15 </wgt>
<wgt id='1584'> +1.3538283e+15 </wgt>
<wgt id='1585'> +1.3666452e+15 </wgt>
<wgt id='1586'> +1.3493774e+15 </wgt>
<wgt id='1587'> +1.3706158e+15 </wgt>
<wgt id='1588'> +1.3715209e+15 </wgt>
<wgt id='1589'> +1.3613067e+15 </wgt>
<wgt id='1590'> +1.3683914e+15 </wgt>
<wgt id='1591'> +1.3599448e+15 </wgt>
<wgt id='1592'> +1.3311905e+15 </wgt>
<wgt id='1593'> +1.3681583e+15 </wgt>
<wgt id='1594'> +1.3454154e+15 </wgt>
<wgt id='1595'> +1.3595898e+15 </wgt>
<wgt id='1596'> +1.3781468e+15 </wgt>
<wgt id='1597'> +1.3691795e+15 </wgt>
<wgt id='1598'> +1.3786701e+15 </wgt>
<wgt id='1599'> +1.3580016e+15 </wgt>
<wgt id='1600'> +1.3684145e+15 </wgt>
<wgt id='1601'> +1.3550438e+15 </wgt>
<wgt id='1602'> +1.3649508e+15 </wgt>
<wgt id='1603'> +1.3620375e+15 </wgt>
<wgt id='1604'> +1.3579186e+15 </wgt>
<wgt id='1605'> +1.3626061e+15 </wgt>
<wgt id='1606'> +1.3628145e+15 </wgt>
<wgt id='1607'> +1.3673999e+15 </wgt>
<wgt id='1608'> +1.3547218e+15 </wgt>
<wgt id='1609'> +1.3620743e+15 </wgt>
<wgt id='1610'> +1.3614387e+15 </wgt>
<wgt id='1611'> +1.3708008e+15 </wgt>
<wgt id='1612'> +1.1473080e+15 </wgt>
<wgt id='1613'> +1.1468382e+15 </wgt>
<wgt id='1614'> +1.1467243e+15 </wgt>
<wgt id='1615'> +1.1454474e+15 </wgt>
<wgt id='1616'> +1.1507198e+15 </wgt>
<wgt id='1617'> +1.1483666e+15 </wgt>
<wgt id='1618'> +1.1456354e+15 </wgt>
<wgt id='1619'> +1.1497889e+15 </wgt>
<wgt id='1620'> +1.1472808e+15 </wgt>
<wgt id='1621'> +1.1481044e+15 </wgt>
<wgt id='1622'> +1.1462267e+15 </wgt>
<wgt id='1623'> +1.1415835e+15 </wgt>
<wgt id='1624'> +1.1428192e+15 </wgt>
<wgt id='1625'> +1.1382508e+15 </wgt>
<wgt id='1626'> +1.1425029e+15 </wgt>
<wgt id='1627'> +1.1445593e+15 </wgt>
<wgt id='1628'> +1.1498128e+15 </wgt>
<wgt id='1629'> +1.1461850e+15 </wgt>
<wgt id='1630'> +1.1415634e+15 </wgt>
<wgt id='1631'> +1.1482934e+15 </wgt>
<wgt id='1632'> +1.1414904e+15 </wgt>
<wgt id='1633'> +1.1506717e+15 </wgt>
<wgt id='1634'> +1.1418596e+15 </wgt>
<wgt id='1635'> +1.1473644e+15 </wgt>
<wgt id='1636'> +1.1430292e+15 </wgt>
<wgt id='1637'> +1.1432570e+15 </wgt>
<wgt id='1638'> +1.1486595e+15 </wgt>
<wgt id='1639'> +1.1448978e+15 </wgt>
<wgt id='1640'> +1.1454234e+15 </wgt>
<wgt id='1641'> +1.1588082e+15 </wgt>
<wgt id='1642'> +1.1479076e+15 </wgt>
<wgt id='1643'> +1.1479362e+15 </wgt>
<wgt id='1644'> +1.1488859e+15 </wgt>
<wgt id='1645'> +1.1485754e+15 </wgt>
<wgt id='1646'> +1.1498356e+15 </wgt>
<wgt id='1647'> +1.1459438e+15 </wgt>
<wgt id='1648'> +1.1457137e+15 </wgt>
<wgt id='1649'> +1.1499348e+15 </wgt>
<wgt id='1650'> +1.1465395e+15 </wgt>
<wgt id='1651'> +1.1455257e+15 </wgt>
<wgt id='1652'> +1.1465220e+15 </wgt>
<wgt id='1653'> +1.1455262e+15 </wgt>
<wgt id='1654'> +1.1440821e+15 </wgt>
<wgt id='1655'> +1.1476078e+15 </wgt>
<wgt id='1656'> +1.1493440e+15 </wgt>
<wgt id='1657'> +1.1459794e+15 </wgt>
<wgt id='1658'> +1.1504114e+15 </wgt>
<wgt id='1659'> +1.1500917e+15 </wgt>
<wgt id='1660'> +1.1452203e+15 </wgt>
<wgt id='1661'> +1.1465285e+15 </wgt>
<wgt id='1662'> +1.1489720e+15 </wgt>
<wgt id='1663'> +1.1490362e+15 </wgt>
<wgt id='1664'> +1.1465222e+15 </wgt>
<wgt id='1665'> +1.1478039e+15 </wgt>
<wgt id='1666'> +1.1483780e+15 </wgt>
<wgt id='1667'> +1.1478458e+15 </wgt>
<wgt id='1668'> +1.1472142e+15 </wgt>
<wgt id='1669'> +1.1470795e+15 </wgt>
<wgt id='1670'> +1.1474141e+15 </wgt>
<wgt id='1671'> +1.1469490e+15 </wgt>
<wgt id='1672'> +1.1475801e+15 </wgt>
<wgt id='1673'> +1.1469936e+15 </wgt>
<wgt id='1674'> +1.1475418e+15 </wgt>
<wgt id='1675'> +1.1469613e+15 </wgt>
<wgt id='1676'> +1.1469313e+15 </wgt>
<wgt id='1677'> +1.1478126e+15 </wgt>
<wgt id='1678'> +1.1471720e+15 </wgt>
<wgt id='1679'> +1.1475429e+15 </wgt>
<wgt id='1680'> +1.1478677e+15 </wgt>
<wgt id='1681'> +1.1476103e+15 </wgt>
<wgt id='1682'> +1.1465085e+15 </wgt>
<wgt id='1683'> +1.1462994e+15 </wgt>
<wgt id='1684'> +1.1473364e+15 </wgt>
<wgt id='1685'> +1.1469764e+15 </wgt>
<wgt id='1686'> +1.1465245e+15 </wgt>
<wgt id='1687'> +1.1471821e+15 </wgt>
<wgt id='1688'> +1.1474248e+15 </wgt>
<wgt id='1689'> +1.1465020e+15 </wgt>
<wgt id='1690'> +1.1475137e+15 </wgt>
<wgt id='1691'> +1.1477718e+15 </wgt>
<wgt id='1692'> +1.1473310e+15 </wgt>
<wgt id='1693'> +1.1476800e+15 </wgt>
<wgt id='1694'> +1.1477687e+15 </wgt>
<wgt id='1695'> +1.1473113e+15 </wgt>
<wgt id='1696'> +1.1471823e+15 </wgt>
<wgt id='1697'> +1.1471167e+15 </wgt>
<wgt id='1698'> +1.1474119e+15 </wgt>
<wgt id='1699'> +1.1471191e+15 </wgt>
<wgt id='1700'> +1.1475541e+15 </wgt>
<wgt id='1701'> +1.1473517e+15 </wgt>
<wgt id='1702'> +1.1474356e+15 </wgt>
<wgt id='1703'> +1.1472252e+15 </wgt>
<wgt id='1704'> +1.1472920e+15 </wgt>
<wgt id='1705'> +1.1473798e+15 </wgt>
<wgt id='1706'> +1.1472486e+15 </wgt>
<wgt id='1707'> +1.1474426e+15 </wgt>
<wgt id='1708'> +1.1469849e+15 </wgt>
<wgt id='1709'> +1.1480337e+15 </wgt>
<wgt id='1710'> +1.1469532e+15 </wgt>
<wgt id='1711'> +1.1475083e+15 </wgt>
<wgt id='1712'> +1.1471984e+15 </wgt>
<wgt id='1713'> +1.1588193e+15 </wgt>
<wgt id='1714'> +1.1417931e+15 </wgt>
<wgt id='1715'> +1.3477507e+15 </wgt>
<wgt id='1716'> +1.3429529e+15 </wgt>
<wgt id='1717'> +1.4323958e+15 </wgt>
<wgt id='1718'> +1.3696854e+15 </wgt>
<wgt id='1719'> +1.3626405e+15 </wgt>
<wgt id='1720'> +1.3798936e+15 </wgt>
<wgt id='1721'> +1.4156109e+15 </wgt>
<wgt id='1722'> +1.3603429e+15 </wgt>
<wgt id='1723'> +1.3615031e+15 </wgt>
<wgt id='1724'> +1.3370470e+15 </wgt>
<wgt id='1725'> +1.3237217e+15 </wgt>
<wgt id='1726'> +1.3165316e+15 </wgt>
<wgt id='1727'> +1.3658726e+15 </wgt>
<wgt id='1728'> +1.3480865e+15 </wgt>
<wgt id='1729'> +1.3436673e+15 </wgt>
<wgt id='1730'> +1.3362706e+15 </wgt>
<wgt id='1731'> +1.4007467e+15 </wgt>
<wgt id='1732'> +1.2681723e+15 </wgt>
<wgt id='1733'> +1.3259287e+15 </wgt>
<wgt id='1734'> +1.4297839e+15 </wgt>
<wgt id='1735'> +1.3477185e+15 </wgt>
<wgt id='1736'> +1.4177064e+15 </wgt>
<wgt id='1737'> +1.3148930e+15 </wgt>
<wgt id='1738'> +1.3541970e+15 </wgt>
<wgt id='1739'> +1.3930970e+15 </wgt>
<wgt id='1740'> +1.3588952e+15 </wgt>
<wgt id='1741'> +1.3178771e+15 </wgt>
<wgt id='1742'> +1.3229645e+15 </wgt>
<wgt id='1743'> +1.3278441e+15 </wgt>
<wgt id='1744'> +1.3572406e+15 </wgt>
<wgt id='1745'> +1.3833172e+15 </wgt>
<wgt id='1746'> +1.3634048e+15 </wgt>
<wgt id='1747'> +1.3422268e+15 </wgt>
<wgt id='1748'> +1.3304642e+15 </wgt>
<wgt id='1749'> +1.3147234e+15 </wgt>
<wgt id='1750'> +1.2918314e+15 </wgt>
<wgt id='1751'> +1.3380156e+15 </wgt>
<wgt id='1752'> +1.3918029e+15 </wgt>
<wgt id='1753'> +1.3718051e+15 </wgt>
<wgt id='1754'> +1.3514695e+15 </wgt>
<wgt id='1755'> +1.3502960e+15 </wgt>
<wgt id='1756'> +1.4207792e+15 </wgt>
<wgt id='1757'> +1.3525560e+15 </wgt>
<wgt id='1758'> +1.3857802e+15 </wgt>
<wgt id='1759'> +1.3636039e+15 </wgt>
<wgt id='1760'> +1.3508572e+15 </wgt>
<wgt id='1761'> +1.3497189e+15 </wgt>
<wgt id='1762'> +1.3658726e+15 </wgt>
<wgt id='1763'> +1.3737172e+15 </wgt>
<wgt id='1764'> +1.3412293e+15 </wgt>
<wgt id='1765'> +1.3320906e+15 </wgt>
<wgt id='1766'> +1.3065505e+15 </wgt>
<wgt id='1767'> +1.3195628e+15 </wgt>
<wgt id='1768'> +1.3133167e+15 </wgt>
<wgt id='1769'> +1.3621086e+15 </wgt>
<wgt id='1770'> +1.2921878e+15 </wgt>
<wgt id='1771'> +1.3375160e+15 </wgt>
<wgt id='1772'> +1.3276806e+15 </wgt>
<wgt id='1773'> +1.3450757e+15 </wgt>
<wgt id='1774'> +1.3337518e+15 </wgt>
<wgt id='1775'> +1.3412319e+15 </wgt>
<wgt id='1776'> +1.3736027e+15 </wgt>
<wgt id='1777'> +1.3349364e+15 </wgt>
<wgt id='1778'> +1.3379963e+15 </wgt>
<wgt id='1779'> +1.3501198e+15 </wgt>
<wgt id='1780'> +1.3594887e+15 </wgt>
<wgt id='1781'> +1.3638568e+15 </wgt>
<wgt id='1782'> +1.2761588e+15 </wgt>
<wgt id='1783'> +1.3446261e+15 </wgt>
<wgt id='1784'> +1.2804626e+15 </wgt>
<wgt id='1785'> +1.3346779e+15 </wgt>
<wgt id='1786'> +1.3248343e+15 </wgt>
<wgt id='1787'> +1.3338001e+15 </wgt>
<wgt id='1788'> +1.3674480e+15 </wgt>
<wgt id='1789'> +1.3429112e+15 </wgt>
<wgt id='1790'> +1.3244616e+15 </wgt>
<wgt id='1791'> +1.4178132e+15 </wgt>
<wgt id='1792'> +1.3404108e+15 </wgt>
<wgt id='1793'> +1.2981687e+15 </wgt>
<wgt id='1794'> +1.3059500e+15 </wgt>
<wgt id='1795'> +1.3480087e+15 </wgt>
<wgt id='1796'> +1.3284571e+15 </wgt>
<wgt id='1797'> +1.4007249e+15 </wgt>
<wgt id='1798'> +1.3263067e+15 </wgt>
<wgt id='1799'> +1.3207353e+15 </wgt>
<wgt id='1800'> +1.3672446e+15 </wgt>
<wgt id='1801'> +1.3509522e+15 </wgt>
<wgt id='1802'> +1.3465611e+15 </wgt>
<wgt id='1803'> +1.3586694e+15 </wgt>
<wgt id='1804'> +1.3521452e+15 </wgt>
<wgt id='1805'> +1.3537864e+15 </wgt>
<wgt id='1806'> +1.3572586e+15 </wgt>
<wgt id='1807'> +1.3877319e+15 </wgt>
<wgt id='1808'> +1.3370734e+15 </wgt>
<wgt id='1809'> +1.3713046e+15 </wgt>
<wgt id='1810'> +1.3503084e+15 </wgt>
<wgt id='1811'> +1.3334175e+15 </wgt>
<wgt id='1812'> +1.3128425e+15 </wgt>
<wgt id='1813'> +1.3468630e+15 </wgt>
<wgt id='1814'> +1.3174778e+15 </wgt>
<wgt id='1815'> +1.3353249e+15 </wgt>
<wgt id='1816'> +1.4099851e+15 </wgt>
<wgt id='1817'> +1.4538950e+15 </wgt>
<wgt id='1818'> +1.4432293e+15 </wgt>
<wgt id='1819'> +1.4446487e+15 </wgt>
<wgt id='1820'> +1.3604648e+15 </wgt>
<wgt id='1821'> +1.4600346e+15 </wgt>
<wgt id='1822'> +1.4141481e+15 </wgt>
<wgt id='1823'> +1.4051179e+15 </wgt>
<wgt id='1824'> +1.4258007e+15 </wgt>
<wgt id='1825'> +1.4143244e+15 </wgt>
<wgt id='1826'> +1.4346039e+15 </wgt>
<wgt id='1827'> +1.3590089e+15 </wgt>
<wgt id='1828'> +1.4107227e+15 </wgt>
<wgt id='1829'> +1.3836774e+15 </wgt>
<wgt id='1830'> +1.4313592e+15 </wgt>
<wgt id='1831'> +1.4511015e+15 </wgt>
<wgt id='1832'> +1.4379613e+15 </wgt>
<wgt id='1833'> +1.4755814e+15 </wgt>
<wgt id='1834'> +1.4602187e+15 </wgt>
<wgt id='1835'> +1.3965334e+15 </wgt>
<wgt id='1836'> +1.4676111e+15 </wgt>
<wgt id='1837'> +1.3899730e+15 </wgt>
<wgt id='1838'> +1.3921470e+15 </wgt>
<wgt id='1839'> +1.4079664e+15 </wgt>
<wgt id='1840'> +1.3923677e+15 </wgt>
<wgt id='1841'> +1.3906887e+15 </wgt>
<wgt id='1842'> +1.3986174e+15 </wgt>
<wgt id='1843'> +1.4565327e+15 </wgt>
<wgt id='1844'> +1.4225477e+15 </wgt>
<wgt id='1845'> +1.4716128e+15 </wgt>
<wgt id='1846'> +1.4276243e+15 </wgt>
<wgt id='1847'> +1.3804725e+15 </wgt>
<wgt id='1848'> +1.3708387e+15 </wgt>
<wgt id='1849'> +1.3713448e+15 </wgt>
<wgt id='1850'> +1.3720765e+15 </wgt>
<wgt id='1851'> +1.4090833e+15 </wgt>
<wgt id='1852'> +1.3838549e+15 </wgt>
<wgt id='1853'> +1.4381225e+15 </wgt>
<wgt id='1854'> +1.4083101e+15 </wgt>
<wgt id='1855'> +1.4108382e+15 </wgt>
<wgt id='1856'> +1.3721480e+15 </wgt>
<wgt id='1857'> +1.4002645e+15 </wgt>
<wgt id='1858'> +1.3854699e+15 </wgt>
<wgt id='1859'> +1.3624635e+15 </wgt>
<wgt id='1860'> +1.4181648e+15 </wgt>
<wgt id='1861'> +1.4127067e+15 </wgt>
<wgt id='1862'> +1.4016728e+15 </wgt>
<wgt id='1863'> +1.4201674e+15 </wgt>
<wgt id='1864'> +1.4249394e+15 </wgt>
<wgt id='1865'> +1.4331060e+15 </wgt>
<wgt id='1866'> +1.3975259e+15 </wgt>
<wgt id='1867'> +1.3919725e+15 </wgt>
<wgt id='1868'> +1.4131810e+15 </wgt>
<wgt id='1869'> +1.4127942e+15 </wgt>
<wgt id='1870'> +1.3827137e+15 </wgt>
<wgt id='1871'> +1.3786605e+15 </wgt>
<wgt id='1872'> +1.4561607e+15 </wgt>
<wgt id='1873'> +1.3860261e+15 </wgt>
<wgt id='1874'> +1.4004217e+15 </wgt>
<wgt id='1875'> +1.4611639e+15 </wgt>
<wgt id='1876'> +1.4025066e+15 </wgt>
<wgt id='1877'> +1.4051723e+15 </wgt>
<wgt id='1878'> +1.4431736e+15 </wgt>
<wgt id='1879'> +1.3562280e+15 </wgt>
<wgt id='1880'> +1.4602603e+15 </wgt>
<wgt id='1881'> +1.3232784e+15 </wgt>
<wgt id='1882'> +1.3988499e+15 </wgt>
<wgt id='1883'> +1.4789930e+15 </wgt>
<wgt id='1884'> +1.3804416e+15 </wgt>
<wgt id='1885'> +1.3758897e+15 </wgt>
<wgt id='1886'> +1.3773233e+15 </wgt>
<wgt id='1887'> +1.3684752e+15 </wgt>
<wgt id='1888'> +1.4106203e+15 </wgt>
<wgt id='1889'> +1.4272192e+15 </wgt>
<wgt id='1890'> +1.4222613e+15 </wgt>
<wgt id='1891'> +1.4218207e+15 </wgt>
<wgt id='1892'> +1.3671315e+15 </wgt>
<wgt id='1893'> +1.3669883e+15 </wgt>
<wgt id='1894'> +1.3941418e+15 </wgt>
<wgt id='1895'> +1.4091468e+15 </wgt>
<wgt id='1896'> +1.3868304e+15 </wgt>
<wgt id='1897'> +1.3733379e+15 </wgt>
<wgt id='1898'> +1.3884733e+15 </wgt>
<wgt id='1899'> +1.4537149e+15 </wgt>
<wgt id='1900'> +1.4133812e+15 </wgt>
<wgt id='1901'> +1.4466977e+15 </wgt>
<wgt id='1902'> +1.4177330e+15 </wgt>
<wgt id='1903'> +1.4225780e+15 </wgt>
<wgt id='1904'> +1.4116662e+15 </wgt>
<wgt id='1905'> +1.4367314e+15 </wgt>
<wgt id='1906'> +1.3927226e+15 </wgt>
<wgt id='1907'> +1.4041671e+15 </wgt>
<wgt id='1908'> +1.3786531e+15 </wgt>
<wgt id='1909'> +1.4419939e+15 </wgt>
<wgt id='1910'> +1.4412695e+15 </wgt>
<wgt id='1911'> +1.4675614e+15 </wgt>
<wgt id='1912'> +1.3690489e+15 </wgt>
<wgt id='1913'> +1.4171976e+15 </wgt>
<wgt id='1914'> +1.3556831e+15 </wgt>
<wgt id='1915'> +1.4142616e+15 </wgt>
<wgt id='1916'> +1.4551278e+15 </wgt>
<wgt id='1917'> +1.4378257e+15 </wgt>
<wgt id='1918'> +1.1623900e+15 </wgt>
<wgt id='1919'> +1.4099851e+15 </wgt>
<wgt id='1920'> +1.4538950e+15 </wgt>
<wgt id='1921'> +1.4432293e+15 </wgt>
<wgt id='1922'> +1.4446487e+15 </wgt>
<wgt id='1923'> +1.3604648e+15 </wgt>
<wgt id='1924'> +1.4600346e+15 </wgt>
<wgt id='1925'> +1.4141481e+15 </wgt>
<wgt id='1926'> +1.4051179e+15 </wgt>
<wgt id='1927'> +1.4258007e+15 </wgt>
<wgt id='1928'> +1.4143244e+15 </wgt>
<wgt id='1929'> +1.4346039e+15 </wgt>
<wgt id='1930'> +1.3590089e+15 </wgt>
<wgt id='1931'> +1.4107227e+15 </wgt>
<wgt id='1932'> +1.3836774e+15 </wgt>
<wgt id='1933'> +1.4313592e+15 </wgt>
<wgt id='1934'> +1.4511015e+15 </wgt>
<wgt id='1935'> +1.4379613e+15 </wgt>
<wgt id='1936'> +1.4755814e+15 </wgt>
<wgt id='1937'> +1.4602187e+15 </wgt>
<wgt id='1938'> +1.3965334e+15 </wgt>
<wgt id='1939'> +1.4676111e+15 </wgt>
<wgt id='1940'> +1.3899730e+15 </wgt>
<wgt id='1941'> +1.3921470e+15 </wgt>
<wgt id='1942'> +1.4079664e+15 </wgt>
<wgt id='1943'> +1.3923677e+15 </wgt>
<wgt id='1944'> +1.3906887e+15 </wgt>
<wgt id='1945'> +1.3986174e+15 </wgt>
<wgt id='1946'> +1.4565327e+15 </wgt>
<wgt id='1947'> +1.4225477e+15 </wgt>
<wgt id='1948'> +1.4716128e+15 </wgt>
<wgt id='1949'> +1.4276243e+15 </wgt>
<wgt id='1950'> +1.3804725e+15 </wgt>
<wgt id='1951'> +1.3708387e+15 </wgt>
<wgt id='1952'> +1.3713448e+15 </wgt>
<wgt id='1953'> +1.3720765e+15 </wgt>
<wgt id='1954'> +1.4090833e+15 </wgt>
<wgt id='1955'> +1.3838549e+15 </wgt>
<wgt id='1956'> +1.4381225e+15 </wgt>
<wgt id='1957'> +1.4083101e+15 </wgt>
<wgt id='1958'> +1.4108382e+15 </wgt>
<wgt id='1959'> +1.3721480e+15 </wgt>
<wgt id='1960'> +1.4002645e+15 </wgt>
<wgt id='1961'> +1.3854699e+15 </wgt>
<wgt id='1962'> +1.3624635e+15 </wgt>
<wgt id='1963'> +1.4181648e+15 </wgt>
<wgt id='1964'> +1.4127067e+15 </wgt>
<wgt id='1965'> +1.4016728e+15 </wgt>
<wgt id='1966'> +1.4201674e+15 </wgt>
<wgt id='1967'> +1.4249394e+15 </wgt>
<wgt id='1968'> +1.4331060e+15 </wgt>
<wgt id='1969'> +1.3975259e+15 </wgt>
<wgt id='1970'> +1.3919725e+15 </wgt>
<wgt id='1971'> +1.4131810e+15 </wgt>
<wgt id='1972'> +1.4127942e+15 </wgt>
<wgt id='1973'> +1.3827137e+15 </wgt>
<wgt id='1974'> +1.3786605e+15 </wgt>
<wgt id='1975'> +1.4561607e+15 </wgt>
<wgt id='1976'> +1.3860261e+15 </wgt>
<wgt id='1977'> +1.4004217e+15 </wgt>
<wgt id='1978'> +1.4611639e+15 </wgt>
<wgt id='1979'> +1.4025066e+15 </wgt>
<wgt id='1980'> +1.4051723e+15 </wgt>
<wgt id='1981'> +1.4431736e+15 </wgt>
<wgt id='1982'> +1.3562280e+15 </wgt>
<wgt id='1983'> +1.4602603e+15 </wgt>
<wgt id='1984'> +1.3232784e+15 </wgt>
<wgt id='1985'> +1.3988499e+15 </wgt>
<wgt id='1986'> +1.4789930e+15 </wgt>
<wgt id='1987'> +1.3804416e+15 </wgt>
<wgt id='1988'> +1.3758897e+15 </wgt>
<wgt id='1989'> +1.3773233e+15 </wgt>
<wgt id='1990'> +1.3684752e+15 </wgt>
<wgt id='1991'> +1.4106203e+15 </wgt>
<wgt id='1992'> +1.4272192e+15 </wgt>
<wgt id='1993'> +1.4222613e+15 </wgt>
<wgt id='1994'> +1.4218207e+15 </wgt>
<wgt id='1995'> +1.3671315e+15 </wgt>
<wgt id='1996'> +1.3669883e+15 </wgt>
<wgt id='1997'> +1.3941418e+15 </wgt>
<wgt id='1998'> +1.4091468e+15 </wgt>
<wgt id='1999'> +1.3868304e+15 </wgt>
<wgt id='2000'> +1.3733379e+15 </wgt>
<wgt id='2001'> +1.3884733e+15 </wgt>
<wgt id='2002'> +1.4537149e+15 </wgt>
<wgt id='2003'> +1.4133812e+15 </wgt>
<wgt id='2004'> +1.4466977e+15 </wgt>
<wgt id='2005'> +1.4177330e+15 </wgt>
<wgt id='2006'> +1.4225780e+15 </wgt>
<wgt id='2007'> +1.4116662e+15 </wgt>
<wgt id='2008'> +1.4367314e+15 </wgt>
<wgt id='2009'> +1.3927226e+15 </wgt>
<wgt id='2010'> +1.4041671e+15 </wgt>
<wgt id='2011'> +1.3786531e+15 </wgt>
<wgt id='2012'> +1.4419939e+15 </wgt>
<wgt id='2013'> +1.4412695e+15 </wgt>
<wgt id='2014'> +1.4675614e+15 </wgt>
<wgt id='2015'> +1.3690489e+15 </wgt>
<wgt id='2016'> +1.4171976e+15 </wgt>
<wgt id='2017'> +1.3556831e+15 </wgt>
<wgt id='2018'> +1.4142616e+15 </wgt>
<wgt id='2019'> +1.4551278e+15 </wgt>
<wgt id='2020'> +1.4180690e+15 </wgt>
<wgt id='2021'> +1.3979437e+15 </wgt>
<wgt id='2022'> +1.3728877e+15 </wgt>
</rwgt>
</event>
<event>
 9      1 +1.3250000e+15 9.99999300e+02 7.81738600e-03 8.18909000e-02
       21 -1    0    0  502  501 +0.0000000000e+00 +0.0000000000e+00 +1.1270541201e+03 1.1270541201e+03 0.0000000000e+00 0.0000e+00 1.0000e+00
       21 -1    0    0  501  502 -0.0000000000e+00 -0.0000000000e+00 -2.2181691818e+02 2.2181691818e+02 0.0000000000e+00 0.0000e+00 1.0000e+00
       45  2    1    2    0    0 +0.0000000000e+00 +2.8421709430e-14 +9.0523720193e+02 1.3488710383e+03 9.9999934310e+02 0.0000e+00 0.0000e+00
       25  2    3    3    0    0 +4.1667883673e+02 -1.8195123628e+02 +2.1971720599e+02 5.2021853310e+02 1.2499666482e+02 0.0000e+00 0.0000e+00
       35  2    3    3    0    0 -4.1667883673e+02 +1.8195123628e+02 +6.8551999595e+02 8.2865250519e+02 9.9999020813e+01 0.0000e+00 0.0000e+00
       22  1    5    5    0    0 -4.0031474394e+02 +1.5962018814e+02 +6.7076646164e+02 7.9728172232e+02 0.0000000000e+00 0.0000e+00 1.0000e+00
       22  1    5    5    0    0 -1.6364092790e+01 +2.2331048141e+01 +1.4753534301e+01 3.1370782877e+01 0.0000000000e+00 0.0000e+00 1.0000e+00
      -15  1    4    4    0    0 +2.1158650367e+02 -1.5817606411e+02 +1.0744916173e+02 2.8519641631e+02 1.7770000000e+00 0.0000e+00 -1.0000e+00
       15  1    4    4    0    0 +2.0509233306e+02 -2.3775172172e+01 +1.1226804426e+02 2.3502211679e+02 1.7770000000e+00 0.0000e+00 -1.0000e+00
<mgrwt>
<rscale>  0 0.99999934E+03</rscale>
<asrwt>0</asrwt>
<pdfrwt beam="1">  1       21 0.17339294E+00 0.99999934E+03</pdfrwt>
<pdfrwt beam="2">  1       21 0.34125681E-01 0.99999934E+03</pdfrwt>
<totfact> 0.13598272E+03</totfact>
</mgrwt>
<rwgt>
<wgt id='1001'> +1.3250000e+15 </wgt>
<wgt id='1002'> +1.3387019e+15 </wgt>
<wgt id='1003'> +1.3387013e+15 </wgt>
<wgt id='1004'> +1.4790328e+15 </wgt>
<wgt id='1005'> +1.3250000e+15 </wgt>
<wgt id='1006'> +1.3250000e+15 </wgt>
<wgt id='1007'> +1.3387019e+15 </wgt>
<wgt id='1008'> +1.3387013e+15 </wgt>
<wgt id='1009'> +1.4790328e+15 </wgt>
<wgt id='1010'> +1.3250000e+15 </wgt>
<wgt id='1011'> +1.3250000e+15 </wgt>
<wgt id='1012'> +1.3387019e+15 </wgt>
<wgt id='1013'> +1.3387013e+15 </wgt>
<wgt id='1014'> +1.4790328e+15 </wgt>
<wgt id='1015'> +1.3250000e+15 </wgt>
<wgt id='1016'> +1.2064007e+15 </wgt>
<wgt id='1017'> +1.2181666e+15 </wgt>
<wgt id='1018'> +1.2181662e+15 </wgt>
<wgt id='1019'> +1.3387013e+15 </wgt>
<wgt id='1020'> +1.2064007e+15 </wgt>
<wgt id='1021'> +1.2064007e+15 </wgt>
<wgt id='1022'> +1.2181666e+15 </wgt>
<wgt id='1023'> +1.2181662e+15 </wgt>
<wgt id='1024'> +1.3387013e+15 </wgt>
<wgt id='1025'> +1.2064007e+15 </wgt>
<wgt id='1026'> +1.2064007e+15 </wgt>
<wgt id='1027'> +1.2181666e+15 </wgt>
<wgt id='1028'> +1.2181662e+15 </wgt>
<wgt id='1029'> +1.3387013e+15 </wgt>
<wgt id='1030'> +1.2064007e+15 </wgt>
<wgt id='1031'> +1.4631559e+15 </wgt>
<wgt id='1032'> +1.4790335e+15 </wgt>
<wgt id='1033'> +1.4790328e+15 </wgt>
<wgt id='1034'> +1.6431088e+15 </wgt>
<wgt id='1035'> +1.4631559e+15 </wgt>
<wgt id='1036'> +1.4631559e+15 </wgt>
<wgt id='1037'> +1.4790335e+15 </wgt>
<wgt id='1038'> +1.4790328e+15 </wgt>
<wgt id='1039'> +1.6431088e+15 </wgt>
<wgt id='1040'> +1.4631559e+15 </wgt>
<wgt id='1041'> +1.4631559e+15 </wgt>
<wgt id='1042'> +1.4790335e+15 </wgt>
<wgt id='1043'> +1.4790328e+15 </wgt>
<wgt id='1044'> +1.6431088e+15 </wgt>
<wgt id='1045'> +1.4631559e+15 </wgt>
<wgt id='1046'> +1.3250000e+15 </wgt>
<wgt id='1047'> +1.3250000e+15 </wgt>
<wgt id='1048'> +1.3250000e+15 </wgt>
<wgt id='1049'> +1.3242452e+15 </wgt>
<wgt id='1050'> +1.3235986e+15 </wgt>
<wgt id='1051'> +1.3219694e+15 </wgt>
<wgt id='1052'> +1.3296761e+15 </wgt>
<wgt id='1053'> +1.3189581e+15 </wgt>
<wgt id='1054'> +1.3270918e+15 </wgt>
<wgt id='1055'> +1.3222279e+15 </wgt>
<wgt id='1056'> +1.3228565e+15 </wgt>
<wgt id='1057'> +1.3250963e+15 </wgt>
<wgt id='1058'> +1.3225106e+15 </wgt>
<wgt id='1059'> +1.3286267e+15 </wgt>
<wgt id='1060'> +1.3289447e+15 </wgt>
<wgt id='1061'> +1.3272156e+15 </wgt>
<wgt id='1062'> +1.3292837e+15 </wgt>
<wgt id='1063'> +1.3298616e+15 </wgt>
<wgt id='1064'> +1.3267491e+15 </wgt>
<wgt id='1065'> +1.3277813e+15 </wgt>
<wgt id='1066'> +1.3160013e+15 </wgt>
<wgt id='1067'> +1.3237064e+15 </wgt>
<wgt id='1068'> +1.3212876e+15 </wgt>
<wgt id='1069'> +1.3232424e+15 </wgt>
<wgt id='1070'> +1.3243613e+15 </wgt>
<wgt id='1071'> +1.3222740e+15 </wgt>
<wgt id='1072'> +1.3211203e+15 </wgt>
<wgt id='1073'> +1.3253890e+15 </wgt>
<wgt id='1074'> +1.3241265e+15 </wgt>
<wgt id='1075'> +1.3295693e+15 </wgt>
<wgt id='1076'> +1.3169898e+15 </wgt>
<wgt id='1077'> +1.3195010e+15 </wgt>
<wgt id='1078'> +1.3274142e+15 </wgt>
<wgt id='1079'> +1.3197054e+15 </wgt>
<wgt id='1080'> +1.3233596e+15 </wgt>
<wgt id='1081'> +1.3227559e+15 </wgt>
<wgt id='1082'> +1.3198312e+15 </wgt>
<wgt id='1083'> +1.3273436e+15 </wgt>
<wgt id='1084'> +1.3268397e+15 </wgt>
<wgt id='1085'> +1.3219117e+15 </wgt>
<wgt id='1086'> +1.3242182e+15 </wgt>
<wgt id='1087'> +1.3238277e+15 </wgt>
<wgt id='1088'> +1.3230060e+15 </wgt>
<wgt id='1089'> +1.3216502e+15 </wgt>
<wgt id='1090'> +1.3276254e+15 </wgt>
<wgt id='1091'> +1.3252875e+15 </wgt>
<wgt id='1092'> +1.3264260e+15 </wgt>
<wgt id='1093'> +1.3251774e+15 </wgt>
<wgt id='1094'> +1.3218589e+15 </wgt>
<wgt id='1095'> +1.3258256e+15 </wgt>
<wgt id='1096'> +1.3249041e+15 </wgt>
<wgt id='1097'> +1.3230616e+15 </wgt>
<wgt id='1098'> +1.3236695e+15 </wgt>
<wgt id='1099'> +1.3238538e+15 </wgt>
<wgt id='1100'> +1.3277243e+15 </wgt>
<wgt id='1101'> +1.3252030e+15 </wgt>
<wgt id='1102'> +1.3246288e+15 </wgt>
<wgt id='1103'> +1.3228856e+15 </wgt>
<wgt id='1104'> +1.3242107e+15 </wgt>
<wgt id='1105'> +1.3254971e+15 </wgt>
<wgt id='1106'> +1.3263559e+15 </wgt>
<wgt id='1107'> +1.3255663e+15 </wgt>
<wgt id='1108'> +1.3242527e+15 </wgt>
<wgt id='1109'> +1.3241026e+15 </wgt>
<wgt id='1110'> +1.3263608e+15 </wgt>
<wgt id='1111'> +1.3256032e+15 </wgt>
<wgt id='1112'> +1.3249244e+15 </wgt>
<wgt id='1113'> +1.3264377e+15 </wgt>
<wgt id='1114'> +1.3239028e+15 </wgt>
<wgt id='1115'> +1.3236779e+15 </wgt>
<wgt id='1116'> +1.3271362e+15 </wgt>
<wgt id='1117'> +1.3247759e+15 </wgt>
<wgt id='1118'> +1.3258604e+15 </wgt>
<wgt id='1119'> +1.3238158e+15 </wgt>
<wgt id='1120'> +1.3239978e+15 </wgt>
<wgt id='1121'> +1.3254600e+15 </wgt>
<wgt id='1122'> +1.3238778e+15 </wgt>
<wgt id='1123'> +1.3247671e+15 </wgt>
<wgt id='1124'> +1.3249893e+15 </wgt>
<wgt id='1125'> +1.3258875e+15 </wgt>
<wgt id='1126'> +1.3254556e+15 </wgt>
<wgt id='1127'> +1.3243799e+15 </wgt>
<wgt id='1128'> +1.3249021e+15 </wgt>
<wgt id='1129'> +1.3244790e+15 </wgt>
<wgt id='1130'> +1.3251764e+15 </wgt>
<wgt id='1131'> +1.3267283e+15 </wgt>
<wgt id='1132'> +1.3246990e+15 </wgt>
<wgt id='1133'> +1.3254527e+15 </wgt>
<wgt id='1134'> +1.3249088e+15 </wgt>
<wgt id='1135'> +1.3251852e+15 </wgt>
<wgt id='1136'> +1.3247041e+15 </wgt>
<wgt id='1137'> +1.3242760e+15 </wgt>
<wgt id='1138'> +1.3255850e+15 </wgt>
<wgt id='1139'> +1.3253000e+15 </wgt>
<wgt id='1140'> +1.3259491e+15 </wgt>
<wgt id='1141'> +1.3241382e+15 </wgt>
<wgt id='1142'> +1.3251282e+15 </wgt>
<wgt id='1143'> +1.3257191e+15 </wgt>
<wgt id='1144'> +1.3245712e+15 </wgt>
<wgt id='1145'> +1.3255562e+15 </wgt>
<wgt id='1146'> +1.3251758e+15 </wgt>
<wgt id='1147'> +1.3252652e+15 </wgt>
<wgt id='1148'> +1.3250000e+15 </wgt>
<wgt id='1149'> +1.3250000e+15 </wgt>
<wgt id='1150'> +1.3778163e+15 </wgt>
<wgt id='1151'> +1.3051494e+15 </wgt>
<wgt id='1152'> +1.3310088e+15 </wgt>
<wgt id='1153'> +1.3352606e+15 </wgt>
<wgt id='1154'> +1.3154064e+15 </wgt>
<wgt id='1155'> +1.3636429e+15 </wgt>
<wgt id='1156'> +1.2959177e+15 </wgt>
<wgt id='1157'> +1.2792102e+15 </wgt>
<wgt id='1158'> +1.3108173e+15 </wgt>
<wgt id='1159'> +1.4021983e+15 </wgt>
<wgt id='1160'> +1.3474558e+15 </wgt>
<wgt id='1161'> +1.3329981e+15 </wgt>
<wgt id='1162'> +1.3290189e+15 </wgt>
<wgt id='1163'> +1.3262929e+15 </wgt>
<wgt id='1164'> +1.2994459e+15 </wgt>
<wgt id='1165'> +1.3115543e+15 </wgt>
<wgt id='1166'> +1.3251920e+15 </wgt>
<wgt id='1167'> +1.2976326e+15 </wgt>
<wgt id='1168'> +1.2874102e+15 </wgt>
<wgt id='1169'> +1.2965178e+15 </wgt>
<wgt id='1170'> +1.3247368e+15 </wgt>
<wgt id='1171'> +1.2810231e+15 </wgt>
<wgt id='1172'> +1.2862449e+15 </wgt>
<wgt id='1173'> +1.3186305e+15 </wgt>
<wgt id='1174'> +1.2898701e+15 </wgt>
<wgt id='1175'> +1.3057114e+15 </wgt>
<wgt id='1176'> +1.3440007e+15 </wgt>
<wgt id='1177'> +1.3030820e+15 </wgt>
<wgt id='1178'> +1.3300078e+15 </wgt>
<wgt id='1179'> +1.3332257e+15 </wgt>
<wgt id='1180'> +1.3610071e+15 </wgt>
<wgt id='1181'> +1.3474033e+15 </wgt>
<wgt id='1182'> +1.3055537e+15 </wgt>
<wgt id='1183'> +1.3356015e+15 </wgt>
<wgt id='1184'> +1.3425475e+15 </wgt>
<wgt id='1185'> +1.3394240e+15 </wgt>
<wgt id='1186'> +1.3110474e+15 </wgt>
<wgt id='1187'> +1.3267545e+15 </wgt>
<wgt id='1188'> +1.3507437e+15 </wgt>
<wgt id='1189'> +1.3119530e+15 </wgt>
<wgt id='1190'> +1.3138903e+15 </wgt>
<wgt id='1191'> +1.3381106e+15 </wgt>
<wgt id='1192'> +1.3419413e+15 </wgt>
<wgt id='1193'> +1.3447008e+15 </wgt>
<wgt id='1194'> +1.3112296e+15 </wgt>
<wgt id='1195'> +1.3288921e+15 </wgt>
<wgt id='1196'> +1.3526655e+15 </wgt>
<wgt id='1197'> +1.3389517e+15 </wgt>
<wgt id='1198'> +1.3506143e+15 </wgt>
<wgt id='1199'> +1.3571768e+15 </wgt>
<wgt id='1200'> +1.3437375e+15 </wgt>
<wgt id='1201'> +1.3073917e+15 </wgt>
<wgt id='1202'> +1.3391567e+15 </wgt>
<wgt id='1203'> +1.3252865e+15 </wgt>
<wgt id='1204'> +1.3059820e+15 </wgt>
<wgt id='1205'> +1.3190661e+15 </wgt>
<wgt id='1206'> +1.3103646e+15 </wgt>
<wgt id='1207'> +1.3445140e+15 </wgt>
<wgt id='1208'> +1.2803030e+15 </wgt>
<wgt id='1209'> +1.3274219e+15 </wgt>
<wgt id='1210'> +1.3407022e+15 </wgt>
<wgt id='1211'> +1.3282406e+15 </wgt>
<wgt id='1212'> +1.3122990e+15 </wgt>
<wgt id='1213'> +1.3386262e+15 </wgt>
<wgt id='1214'> +1.2976755e+15 </wgt>
<wgt id='1215'> +1.3233883e+15 </wgt>
<wgt id='1216'> +1.3079717e+15 </wgt>
<wgt id='1217'> +1.3107686e+15 </wgt>
<wgt id='1218'> +1.3220567e+15 </wgt>
<wgt id='1219'> +1.3549265e+15 </wgt>
<wgt id='1220'> +1.3248000e+15 </wgt>
<wgt id='1221'> +1.3217878e+15 </wgt>
<wgt id='1222'> +1.3076581e+15 </wgt>
<wgt id='1223'> +1.2987636e+15 </wgt>
<wgt id='1224'> +1.3257601e+15 </wgt>
<wgt id='1225'> +1.3521277e+15 </wgt>
<wgt id='1226'> +1.3274895e+15 </wgt>
<wgt id='1227'> +1.3287321e+15 </wgt>
<wgt id='1228'> +1.3214845e+15 </wgt>
<wgt id='1229'> +1.3853504e+15 </wgt>
<wgt id='1230'> +1.3355744e+15 </wgt>
<wgt id='1231'> +1.3115543e+15 </wgt>
<wgt id='1232'> +1.3352295e+15 </wgt>
<wgt id='1233'> +1.2955258e+15 </wgt>
<wgt id='1234'> +1.3385388e+15 </wgt>
<wgt id='1235'> +1.3710829e+15 </wgt>
<wgt id='1236'> +1.3086028e+15 </wgt>
<wgt id='1237'> +1.3435945e+15 </wgt>
<wgt id='1238'> +1.3212402e+15 </wgt>
<wgt id='1239'> +1.3192499e+15 </wgt>
<wgt id='1240'> +1.2937081e+15 </wgt>
<wgt id='1241'> +1.3399329e+15 </wgt>
<wgt id='1242'> +1.3142661e+15 </wgt>
<wgt id='1243'> +1.3286554e+15 </wgt>
<wgt id='1244'> +1.3275750e+15 </wgt>
<wgt id='1245'> +1.3053230e+15 </wgt>
<wgt id='1246'> +1.3956567e+15 </wgt>
<wgt id='1247'> +1.3143577e+15 </wgt>
<wgt id='1248'> +1.2798884e+15 </wgt>
<wgt id='1249'> +1.2906391e+15 </wgt>
<wgt id='1250'> +1.3663068e+15 </wgt>
<wgt id='1251'> +1.3397727e+15 </wgt>
<wgt id='1252'> +1.4241419e+15 </wgt>
<wgt id='1253'> +1.4030148e+15 </wgt>
<wgt id='1254'> +1.5648723e+15 </wgt>
<wgt id='1255'> +1.1633771e+15 </wgt>
<wgt id='1256'> +1.1644192e+15 </wgt>
<wgt id='1257'> +1.1627798e+15 </wgt>
<wgt id='1258'> +1.1636431e+15 </wgt>
<wgt id='1259'> +1.1632211e+15 </wgt>
<wgt id='1260'> +1.1610185e+15 </wgt>
<wgt id='1261'> +1.1665366e+15 </wgt>
<wgt id='1262'> +1.1614206e+15 </wgt>
<wgt id='1263'> +1.1645957e+15 </wgt>
<wgt id='1264'> +1.1632748e+15 </wgt>
<wgt id='1265'> +1.1634488e+15 </wgt>
<wgt id='1266'> +1.1668524e+15 </wgt>
<wgt id='1267'> +1.1598804e+15 </wgt>
<wgt id='1268'> +1.1672527e+15 </wgt>
<wgt id='1269'> +1.1592183e+15 </wgt>
<wgt id='1270'> +1.1419546e+15 </wgt>
<wgt id='1271'> +1.1874781e+15 </wgt>
<wgt id='1272'> +1.1556027e+15 </wgt>
<wgt id='1273'> +1.1693376e+15 </wgt>
<wgt id='1274'> +1.1721759e+15 </wgt>
<wgt id='1275'> +1.1526160e+15 </wgt>
<wgt id='1276'> +1.1905534e+15 </wgt>
<wgt id='1277'> +1.1362228e+15 </wgt>
<wgt id='1278'> +1.1557042e+15 </wgt>
<wgt id='1279'> +1.1692433e+15 </wgt>
<wgt id='1280'> +1.1634451e+15 </wgt>
<wgt id='1281'> +1.1641766e+15 </wgt>
<wgt id='1282'> +1.1544927e+15 </wgt>
<wgt id='1283'> +1.1695397e+15 </wgt>
<wgt id='1284'> +1.1653180e+15 </wgt>
<wgt id='1285'> +1.1621489e+15 </wgt>
<wgt id='1286'> +1.1652318e+15 </wgt>
<wgt id='1287'> +1.1632388e+15 </wgt>
<wgt id='1288'> +1.1707691e+15 </wgt>
<wgt id='1289'> +1.1598318e+15 </wgt>
<wgt id='1290'> +1.1633404e+15 </wgt>
<wgt id='1291'> +1.1633713e+15 </wgt>
<wgt id='1292'> +1.1737738e+15 </wgt>
<wgt id='1293'> +1.1501444e+15 </wgt>
<wgt id='1294'> +1.1656878e+15 </wgt>
<wgt id='1295'> +1.1546281e+15 </wgt>
<wgt id='1296'> +1.3943718e+15 </wgt>
<wgt id='1297'> +1.3999970e+15 </wgt>
<wgt id='1298'> +1.3897748e+15 </wgt>
<wgt id='1299'> +1.3932595e+15 </wgt>
<wgt id='1300'> +1.3956576e+15 </wgt>
<wgt id='1301'> +1.3939980e+15 </wgt>
<wgt id='1302'> +1.3949227e+15 </wgt>
<wgt id='1303'> +1.3951681e+15 </wgt>
<wgt id='1304'> +1.3938429e+15 </wgt>
<wgt id='1305'> +1.3931393e+15 </wgt>
<wgt id='1306'> +1.3961799e+15 </wgt>
<wgt id='1307'> +1.3869631e+15 </wgt>
<wgt id='1308'> +1.3990100e+15 </wgt>
<wgt id='1309'> +1.3946243e+15 </wgt>
<wgt id='1310'> +1.3941103e+15 </wgt>
<wgt id='1311'> +1.3936583e+15 </wgt>
<wgt id='1312'> +1.3946365e+15 </wgt>
<wgt id='1313'> +1.3726527e+15 </wgt>
<wgt id='1314'> +1.4217765e+15 </wgt>
<wgt id='1315'> +1.3974035e+15 </wgt>
<wgt id='1316'> +1.3914856e+15 </wgt>
<wgt id='1317'> +1.4276301e+15 </wgt>
<wgt id='1318'> +1.3402071e+15 </wgt>
<wgt id='1319'> +1.3712756e+15 </wgt>
<wgt id='1320'> +1.4094745e+15 </wgt>
<wgt id='1321'> +1.3801169e+15 </wgt>
<wgt id='1322'> +1.4014242e+15 </wgt>
<wgt id='1323'> +1.3869846e+15 </wgt>
<wgt id='1324'> +1.4023407e+15 </wgt>
<wgt id='1325'> +1.3832725e+15 </wgt>
<wgt id='1326'> +1.4137539e+15 </wgt>
<wgt id='1327'> +1.3894173e+15 </wgt>
<wgt id='1328'> +1.3964263e+15 </wgt>
<wgt id='1329'> +1.3973245e+15 </wgt>
<wgt id='1330'> +1.3925894e+15 </wgt>
<wgt id='1331'> +1.4040566e+15 </wgt>
<wgt id='1332'> +1.3895053e+15 </wgt>
<wgt id='1333'> +1.3896501e+15 </wgt>
<wgt id='1334'> +1.4097421e+15 </wgt>
<wgt id='1335'> +1.3976635e+15 </wgt>
<wgt id='1336'> +1.3935925e+15 </wgt>
<wgt id='1337'> +1.3943718e+15 </wgt>
<wgt id='1338'> +1.4020033e+15 </wgt>
<wgt id='1339'> +1.3991831e+15 </wgt>
<wgt id='1340'> +1.3965118e+15 </wgt>
<wgt id='1341'> +1.3923048e+15 </wgt>
<wgt id='1342'> +1.3903801e+15 </wgt>
<wgt id='1343'> +1.3887507e+15 </wgt>
<wgt id='1344'> +1.3828605e+15 </wgt>
<wgt id='1345'> +1.3897843e+15 </wgt>
<wgt id='1346'> +1.3760126e+15 </wgt>
<wgt id='1347'> +1.3824952e+15 </wgt>
<wgt id='1348'> +1.3831795e+15 </wgt>
<wgt id='1349'> +1.3832483e+15 </wgt>
<wgt id='1350'> +1.3825752e+15 </wgt>
<wgt id='1351'> +1.3827672e+15 </wgt>
<wgt id='1352'> +1.3830372e+15 </wgt>
<wgt id='1353'> +1.3826255e+15 </wgt>
<wgt id='1354'> +1.3830773e+15 </wgt>
<wgt id='1355'> +1.3844158e+15 </wgt>
<wgt id='1356'> +1.3816961e+15 </wgt>
<wgt id='1357'> +1.3770606e+15 </wgt>
<wgt id='1358'> +1.3863732e+15 </wgt>
<wgt id='1359'> +1.3834043e+15 </wgt>
<wgt id='1360'> +1.3814853e+15 </wgt>
<wgt id='1361'> +1.3389180e+15 </wgt>
<wgt id='1362'> +1.4224199e+15 </wgt>
<wgt id='1363'> +1.3739940e+15 </wgt>
<wgt id='1364'> +1.3939192e+15 </wgt>
<wgt id='1365'> +1.3751944e+15 </wgt>
<wgt id='1366'> +1.3862390e+15 </wgt>
<wgt id='1367'> +1.3714877e+15 </wgt>
<wgt id='1368'> +1.3884420e+15 </wgt>
<wgt id='1369'> +1.4086436e+15 </wgt>
<wgt id='1370'> +1.3613648e+15 </wgt>
<wgt id='1371'> +1.3778153e+15 </wgt>
<wgt id='1372'> +1.3905273e+15 </wgt>
<wgt id='1373'> +1.3749246e+15 </wgt>
<wgt id='1374'> +1.3933101e+15 </wgt>
<wgt id='1375'> +1.3759345e+15 </wgt>
<wgt id='1376'> +1.3853726e+15 </wgt>
<wgt id='1377'> +1.3791075e+15 </wgt>
<wgt id='1378'> +1.3899056e+15 </wgt>
<wgt id='1379'> +1.3749900e+15 </wgt>
<wgt id='1380'> +1.3919156e+15 </wgt>
<wgt id='1381'> +1.3832009e+15 </wgt>
<wgt id='1382'> +1.3891262e+15 </wgt>
<wgt id='1383'> +1.3819833e+15 </wgt>
<wgt id='1384'> +1.3887968e+15 </wgt>
<wgt id='1385'> +1.3828605e+15 </wgt>
<wgt id='1386'> +1.3903921e+15 </wgt>
<wgt id='1387'> +1.3874436e+15 </wgt>
<wgt id='1388'> +1.3848373e+15 </wgt>
<wgt id='1389'> +1.3806767e+15 </wgt>
<wgt id='1390'> +1.3788675e+15 </wgt>
<wgt id='1391'> +1.3774985e+15 </wgt>
<wgt id='1392'> +1.3570888e+15 </wgt>
<wgt id='1393'> +1.3578338e+15 </wgt>
<wgt id='1394'> +1.3561976e+15 </wgt>
<wgt id='1395'> +1.3582387e+15 </wgt>
<wgt id='1396'> +1.3561781e+15 </wgt>
<wgt id='1397'> +1.3651357e+15 </wgt>
<wgt id='1398'> +1.3492369e+15 </wgt>
<wgt id='1399'> +1.3554030e+15 </wgt>
<wgt id='1400'> +1.3591296e+15 </wgt>
<wgt id='1401'> +1.3573491e+15 </wgt>
<wgt id='1402'> +1.3566403e+15 </wgt>
<wgt id='1403'> +1.3569180e+15 </wgt>
<wgt id='1404'> +1.3573298e+15 </wgt>
<wgt id='1405'> +1.3572193e+15 </wgt>
<wgt id='1406'> +1.3568331e+15 </wgt>
<wgt id='1407'> +1.3581087e+15 </wgt>
<wgt id='1408'> +1.3563392e+15 </wgt>
<wgt id='1409'> +1.3538928e+15 </wgt>
<wgt id='1410'> +1.3605430e+15 </wgt>
<wgt id='1411'> +1.3551167e+15 </wgt>
<wgt id='1412'> +1.3585050e+15 </wgt>
<wgt id='1413'> +1.3534782e+15 </wgt>
<wgt id='1414'> +1.3607712e+15 </wgt>
<wgt id='1415'> +1.3510125e+15 </wgt>
<wgt id='1416'> +1.3627812e+15 </wgt>
<wgt id='1417'> +1.3467437e+15 </wgt>
<wgt id='1418'> +1.3698566e+15 </wgt>
<wgt id='1419'> +1.3547486e+15 </wgt>
<wgt id='1420'> +1.3566701e+15 </wgt>
<wgt id='1421'> +1.3360292e+15 </wgt>
<wgt id='1422'> +1.3825475e+15 </wgt>
<wgt id='1423'> +1.3170168e+15 </wgt>
<wgt id='1424'> +1.3890550e+15 </wgt>
<wgt id='1425'> +1.3601975e+15 </wgt>
<wgt id='1426'> +1.3529387e+15 </wgt>
<wgt id='1427'> +1.3625644e+15 </wgt>
<wgt id='1428'> +1.3439590e+15 </wgt>
<wgt id='1429'> +1.3558712e+15 </wgt>
<wgt id='1430'> +1.3572807e+15 </wgt>
<wgt id='1431'> +1.3506217e+15 </wgt>
<wgt id='1432'> +1.3633703e+15 </wgt>
<wgt id='1433'> +1.3396305e+15 </wgt>
<wgt id='1434'> +1.3780294e+15 </wgt>
<wgt id='1435'> +1.3615505e+15 </wgt>
<wgt id='1436'> +1.3567078e+15 </wgt>
<wgt id='1437'> +1.3545161e+15 </wgt>
<wgt id='1438'> +1.3636352e+15 </wgt>
<wgt id='1439'> +1.3560551e+15 </wgt>
<wgt id='1440'> +1.3660985e+15 </wgt>
<wgt id='1441'> +1.3547029e+15 </wgt>
<wgt id='1442'> +1.3585047e+15 </wgt>
<wgt id='1443'> +1.3702162e+15 </wgt>
<wgt id='1444'> +1.3711398e+15 </wgt>
<wgt id='1445'> +1.3692230e+15 </wgt>
<wgt id='1446'> +1.3715434e+15 </wgt>
<wgt id='1447'> +1.3693243e+15 </wgt>
<wgt id='1448'> +1.3787223e+15 </wgt>
<wgt id='1449'> +1.3623454e+15 </wgt>
<wgt id='1450'> +1.3680738e+15 </wgt>
<wgt id='1451'> +1.3726857e+15 </wgt>
<wgt id='1452'> +1.3704338e+15 </wgt>
<wgt id='1453'> +1.3699245e+15 </wgt>
<wgt id='1454'> +1.3701406e+15 </wgt>
<wgt id='1455'> +1.3703032e+15 </wgt>
<wgt id='1456'> +1.3704360e+15 </wgt>
<wgt id='1457'> +1.3697868e+15 </wgt>
<wgt id='1458'> +1.3711410e+15 </wgt>
<wgt id='1459'> +1.3696866e+15 </wgt>
<wgt id='1460'> +1.3663508e+15 </wgt>
<wgt id='1461'> +1.3747079e+15 </wgt>
<wgt id='1462'> +1.3691847e+15 </wgt>
<wgt id='1463'> +1.3711133e+15 </wgt>
<wgt id='1464'> +1.3670194e+15 </wgt>
<wgt id='1465'> +1.3742891e+15 </wgt>
<wgt id='1466'> +1.3630310e+15 </wgt>
<wgt id='1467'> +1.3747088e+15 </wgt>
<wgt id='1468'> +1.3902740e+15 </wgt>
<wgt id='1469'> +1.3509030e+15 </wgt>
<wgt id='1470'> +1.3683947e+15 </wgt>
<wgt id='1471'> +1.3698850e+15 </wgt>
<wgt id='1472'> +1.3536456e+15 </wgt>
<wgt id='1473'> +1.3905469e+15 </wgt>
<wgt id='1474'> +1.3408439e+15 </wgt>
<wgt id='1475'> +1.4048285e+15 </wgt>
<wgt id='1476'> +1.3805421e+15 </wgt>
<wgt id='1477'> +1.3604420e+15 </wgt>
<wgt id='1478'> +1.3755966e+15 </wgt>
<wgt id='1479'> +1.3562375e+15 </wgt>
<wgt id='1480'> +1.3697744e+15 </wgt>
<wgt id='1481'> +1.3693857e+15 </wgt>
<wgt id='1482'> +1.3641380e+15 </wgt>
<wgt id='1483'> +1.3771984e+15 </wgt>
<wgt id='1484'> +1.3523117e+15 </wgt>
<wgt id='1485'> +1.3906576e+15 </wgt>
<wgt id='1486'> +1.3759634e+15 </wgt>
<wgt id='1487'> +1.3688106e+15 </wgt>
<wgt id='1488'> +1.3668882e+15 </wgt>
<wgt id='1489'> +1.3785391e+15 </wgt>
<wgt id='1490'> +1.3697266e+15 </wgt>
<wgt id='1491'> +1.3797259e+15 </wgt>
<wgt id='1492'> +1.3670954e+15 </wgt>
<wgt id='1493'> +1.3724592e+15 </wgt>
<wgt id='1494'> +1.3570888e+15 </wgt>
<wgt id='1495'> +1.3783305e+15 </wgt>
<wgt id='1496'> +1.3702162e+15 </wgt>
<wgt id='1497'> +1.3645616e+15 </wgt>
<wgt id='1498'> +1.3550839e+15 </wgt>
<wgt id='1499'> +1.3586098e+15 </wgt>
<wgt id='1500'> +1.3696668e+15 </wgt>
<wgt id='1501'> +1.3684143e+15 </wgt>
<wgt id='1502'> +1.3666748e+15 </wgt>
<wgt id='1503'> +1.3645669e+15 </wgt>
<wgt id='1504'> +1.3618298e+15 </wgt>
<wgt id='1505'> +1.3557945e+15 </wgt>
<wgt id='1506'> +1.3524329e+15 </wgt>
<wgt id='1507'> +1.3487575e+15 </wgt>
<wgt id='1508'> +1.3586098e+15 </wgt>
<wgt id='1509'> +1.3629856e+15 </wgt>
<wgt id='1510'> +1.3605902e+15 </wgt>
<wgt id='1511'> +1.3569518e+15 </wgt>
<wgt id='1512'> +1.3560543e+15 </wgt>
<wgt id='1513'> +1.3977442e+15 </wgt>
<wgt id='1514'> +1.3973558e+15 </wgt>
<wgt id='1515'> +1.3981732e+15 </wgt>
<wgt id='1516'> +1.4023570e+15 </wgt>
<wgt id='1517'> +1.3931469e+15 </wgt>
<wgt id='1518'> +1.4017170e+15 </wgt>
<wgt id='1519'> +1.3961403e+15 </wgt>
<wgt id='1520'> +1.4003880e+15 </wgt>
<wgt id='1521'> +1.3950977e+15 </wgt>
<wgt id='1522'> +1.3985474e+15 </wgt>
<wgt id='1523'> +1.3969495e+15 </wgt>
<wgt id='1524'> +1.3985627e+15 </wgt>
<wgt id='1525'> +1.3973850e+15 </wgt>
<wgt id='1526'> +1.3970654e+15 </wgt>
<wgt id='1527'> +1.3985205e+15 </wgt>
<wgt id='1528'> +1.3993231e+15 </wgt>
<wgt id='1529'> +1.3960398e+15 </wgt>
<wgt id='1530'> +1.3942533e+15 </wgt>
<wgt id='1531'> +1.3997081e+15 </wgt>
<wgt id='1532'> +1.3986703e+15 </wgt>
<wgt id='1533'> +1.3964427e+15 </wgt>
<wgt id='1534'> +1.3969039e+15 </wgt>
<wgt id='1535'> +1.3982492e+15 </wgt>
<wgt id='1536'> +1.4008265e+15 </wgt>
<wgt id='1537'> +1.3948740e+15 </wgt>
<wgt id='1538'> +1.3985894e+15 </wgt>
<wgt id='1539'> +1.3952739e+15 </wgt>
<wgt id='1540'> +1.3930112e+15 </wgt>
<wgt id='1541'> +1.3987317e+15 </wgt>
<wgt id='1542'> +1.4140963e+15 </wgt>
<wgt id='1543'> +1.3577041e+15 </wgt>
<wgt id='1544'> +1.3840343e+15 </wgt>
<wgt id='1545'> +1.4267806e+15 </wgt>
<wgt id='1546'> +1.4039957e+15 </wgt>
<wgt id='1547'> +1.3854588e+15 </wgt>
<wgt id='1548'> +1.3759828e+15 </wgt>
<wgt id='1549'> +1.4074298e+15 </wgt>
<wgt id='1550'> +1.3964554e+15 </wgt>
<wgt id='1551'> +1.3990533e+15 </wgt>
<wgt id='1552'> +1.3884887e+15 </wgt>
<wgt id='1553'> +1.4048949e+15 </wgt>
<wgt id='1554'> +1.4147675e+15 </wgt>
<wgt id='1555'> +1.3731807e+15 </wgt>
<wgt id='1556'> +1.3992332e+15 </wgt>
<wgt id='1557'> +1.3893678e+15 </wgt>
<wgt id='1558'> +1.3957906e+15 </wgt>
<wgt id='1559'> +1.4000341e+15 </wgt>
<wgt id='1560'> +1.4013564e+15 </wgt>
<wgt id='1561'> +1.3962348e+15 </wgt>
<wgt id='1562'> +1.4047224e+15 </wgt>
<wgt id='1563'> +1.3930160e+15 </wgt>
<wgt id='1564'> +1.3977442e+15 </wgt>
<wgt id='1565'> +1.3979113e+15 </wgt>
<wgt id='1566'> +1.4058035e+15 </wgt>
<wgt id='1567'> +1.4019719e+15 </wgt>
<wgt id='1568'> +1.4229415e+15 </wgt>
<wgt id='1569'> +1.4190846e+15 </wgt>
<wgt id='1570'> +1.4150618e+15 </wgt>
<wgt id='1571'> +1.4111191e+15 </wgt>
<wgt id='1572'> +1.4065542e+15 </wgt>
<wgt id='1573'> +1.3962489e+15 </wgt>
<wgt id='1574'> +1.3903825e+15 </wgt>
<wgt id='1575'> +1.3853234e+15 </wgt>
<wgt id='1576'> +1.4019719e+15 </wgt>
<wgt id='1577'> +1.4055570e+15 </wgt>
<wgt id='1578'> +1.4035742e+15 </wgt>
<wgt id='1579'> +1.4006932e+15 </wgt>
<wgt id='1580'> +1.3996120e+15 </wgt>
<wgt id='1581'> +1.4004182e+15 </wgt>
<wgt id='1582'> +1.4038195e+15 </wgt>
<wgt id='1583'> +1.4052576e+15 </wgt>
<wgt id='1584'> +1.3902258e+15 </wgt>
<wgt id='1585'> +1.4004462e+15 </wgt>
<wgt id='1586'> +1.3803165e+15 </wgt>
<wgt id='1587'> +1.4120667e+15 </wgt>
<wgt id='1588'> +1.4023874e+15 </wgt>
<wgt id='1589'> +1.3991553e+15 </wgt>
<wgt id='1590'> +1.4140524e+15 </wgt>
<wgt id='1591'> +1.4039997e+15 </wgt>
<wgt id='1592'> +1.3723353e+15 </wgt>
<wgt id='1593'> +1.4038698e+15 </wgt>
<wgt id='1594'> +1.3846452e+15 </wgt>
<wgt id='1595'> +1.4013417e+15 </wgt>
<wgt id='1596'> +1.4167184e+15 </wgt>
<wgt id='1597'> +1.4076308e+15 </wgt>
<wgt id='1598'> +1.4115637e+15 </wgt>
<wgt id='1599'> +1.3888908e+15 </wgt>
<wgt id='1600'> +1.3998935e+15 </wgt>
<wgt id='1601'> +1.3914283e+15 </wgt>
<wgt id='1602'> +1.3986375e+15 </wgt>
<wgt id='1603'> +1.4060000e+15 </wgt>
<wgt id='1604'> +1.3931296e+15 </wgt>
<wgt id='1605'> +1.3951745e+15 </wgt>
<wgt id='1606'> +1.3988650e+15 </wgt>
<wgt id='1607'> +1.4022859e+15 </wgt>
<wgt id='1608'> +1.3926502e+15 </wgt>
<wgt id='1609'> +1.3958108e+15 </wgt>
<wgt id='1610'> +1.4016627e+15 </wgt>
<wgt id='1611'> +1.3859779e+15 </wgt>
<wgt id='1612'> +1.1455839e+15 </wgt>
<wgt id='1613'> +1.1443254e+15 </wgt>
<wgt id='1614'> +1.1445882e+15 </wgt>
<wgt id='1615'> +1.1435984e+15 </wgt>
<wgt id='1616'> +1.1490485e+15 </wgt>
<wgt id='1617'> +1.1458786e+15 </wgt>
<wgt id='1618'> +1.1427226e+15 </wgt>
<wgt id='1619'> +1.1446727e+15 </wgt>
<wgt id='1620'> +1.1426578e+15 </wgt>
<wgt id='1621'> +1.1478000e+15 </wgt>
<wgt id='1622'> +1.1437978e+15 </wgt>
<wgt id='1623'> +1.1411059e+15 </wgt>
<wgt id='1624'> +1.1439841e+15 </wgt>
<wgt id='1625'> +1.1400304e+15 </wgt>
<wgt id='1626'> +1.1444478e+15 </wgt>
<wgt id='1627'> +1.1449005e+15 </wgt>
<wgt id='1628'> +1.1490808e+15 </wgt>
<wgt id='1629'> +1.1454471e+15 </wgt>
<wgt id='1630'> +1.1434002e+15 </wgt>
<wgt id='1631'> +1.1464837e+15 </wgt>
<wgt id='1632'> +1.1463021e+15 </wgt>
<wgt id='1633'> +1.1461462e+15 </wgt>
<wgt id='1634'> +1.1460643e+15 </wgt>
<wgt id='1635'> +1.1482213e+15 </wgt>
<wgt id='1636'> +1.1433687e+15 </wgt>
<wgt id='1637'> +1.1474632e+15 </wgt>
<wgt id='1638'> +1.1490508e+15 </wgt>
<wgt id='1639'> +1.1430035e+15 </wgt>
<wgt id='1640'> +1.1424782e+15 </wgt>
<wgt id='1641'> +1.1532342e+15 </wgt>
<wgt id='1642'> +1.1474768e+15 </wgt>
<wgt id='1643'> +1.1463915e+15 </wgt>
<wgt id='1644'> +1.1473537e+15 </wgt>
<wgt id='1645'> +1.1464531e+15 </wgt>
<wgt id='1646'> +1.1434646e+15 </wgt>
<wgt id='1647'> +1.1462912e+15 </wgt>
<wgt id='1648'> +1.1467665e+15 </wgt>
<wgt id='1649'> +1.1427447e+15 </wgt>
<wgt id='1650'> +1.1456085e+15 </wgt>
<wgt id='1651'> +1.1484984e+15 </wgt>
<wgt id='1652'> +1.1506646e+15 </wgt>
<wgt id='1653'> +1.1486245e+15 </wgt>
<wgt id='1654'> +1.1418282e+15 </wgt>
<wgt id='1655'> +1.1418721e+15 </wgt>
<wgt id='1656'> +1.1446745e+15 </wgt>
<wgt id='1657'> +1.1452663e+15 </wgt>
<wgt id='1658'> +1.1478614e+15 </wgt>
<wgt id='1659'> +1.1485982e+15 </wgt>
<wgt id='1660'> +1.1407783e+15 </wgt>
<wgt id='1661'> +1.1433437e+15 </wgt>
<wgt id='1662'> +1.1460227e+15 </wgt>
<wgt id='1663'> +1.1461845e+15 </wgt>
<wgt id='1664'> +1.1458396e+15 </wgt>
<wgt id='1665'> +1.1468276e+15 </wgt>
<wgt id='1666'> +1.1464398e+15 </wgt>
<wgt id='1667'> +1.1460917e+15 </wgt>
<wgt id='1668'> +1.1448440e+15 </wgt>
<wgt id='1669'> +1.1455296e+15 </wgt>
<wgt id='1670'> +1.1450613e+15 </wgt>
<wgt id='1671'> +1.1451386e+15 </wgt>
<wgt id='1672'> +1.1451927e+15 </wgt>
<wgt id='1673'> +1.1448886e+15 </wgt>
<wgt id='1674'> +1.1450927e+15 </wgt>
<wgt id='1675'> +1.1461013e+15 </wgt>
<wgt id='1676'> +1.1456181e+15 </wgt>
<wgt id='1677'> +1.1460259e+15 </wgt>
<wgt id='1678'> +1.1469715e+15 </wgt>
<wgt id='1679'> +1.1454923e+15 </wgt>
<wgt id='1680'> +1.1460012e+15 </wgt>
<wgt id='1681'> +1.1464830e+15 </wgt>
<wgt id='1682'> +1.1430952e+15 </wgt>
<wgt id='1683'> +1.1444681e+15 </wgt>
<wgt id='1684'> +1.1456693e+15 </wgt>
<wgt id='1685'> +1.1436322e+15 </wgt>
<wgt id='1686'> +1.1441391e+15 </wgt>
<wgt id='1687'> +1.1448112e+15 </wgt>
<wgt id='1688'> +1.1464083e+15 </wgt>
<wgt id='1689'> +1.1430620e+15 </wgt>
<wgt id='1690'> +1.1461978e+15 </wgt>
<wgt id='1691'> +1.1461718e+15 </wgt>
<wgt id='1692'> +1.1461016e+15 </wgt>
<wgt id='1693'> +1.1460002e+15 </wgt>
<wgt id='1694'> +1.1466552e+15 </wgt>
<wgt id='1695'> +1.1453812e+15 </wgt>
<wgt id='1696'> +1.1452273e+15 </wgt>
<wgt id='1697'> +1.1456785e+15 </wgt>
<wgt id='1698'> +1.1459037e+15 </wgt>
<wgt id='1699'> +1.1449835e+15 </wgt>
<wgt id='1700'> +1.1459692e+15 </wgt>
<wgt id='1701'> +1.1455497e+15 </wgt>
<wgt id='1702'> +1.1461896e+15 </wgt>
<wgt id='1703'> +1.1453408e+15 </wgt>
<wgt id='1704'> +1.1451056e+15 </wgt>
<wgt id='1705'> +1.1462332e+15 </wgt>
<wgt id='1706'> +1.1451058e+15 </wgt>
<wgt id='1707'> +1.1459480e+15 </wgt>
<wgt id='1708'> +1.1449827e+15 </wgt>
<wgt id='1709'> +1.1469687e+15 </wgt>
<wgt id='1710'> +1.1449794e+15 </wgt>
<wgt id='1711'> +1.1459999e+15 </wgt>
<wgt id='1712'> +1.1453919e+15 </wgt>
<wgt id='1713'> +1.1567212e+15 </wgt>
<wgt id='1714'> +1.1393825e+15 </wgt>
<wgt id='1715'> +1.3671096e+15 </wgt>
<wgt id='1716'> +1.3452326e+15 </wgt>
<wgt id='1717'> +1.4157715e+15 </wgt>
<wgt id='1718'> +1.3739894e+15 </wgt>
<wgt id='1719'> +1.3815563e+15 </wgt>
<wgt id='1720'> +1.3778410e+15 </wgt>
<wgt id='1721'> +1.4065519e+15 </wgt>
<wgt id='1722'> +1.3548049e+15 </wgt>
<wgt id='1723'> +1.3863597e+15 </wgt>
<wgt id='1724'> +1.3781072e+15 </wgt>
<wgt id='1725'> +1.3847648e+15 </wgt>
<wgt id='1726'> +1.3633559e+15 </wgt>
<wgt id='1727'> +1.3789559e+15 </wgt>
<wgt id='1728'> +1.3573383e+15 </wgt>
<wgt id='1729'> +1.3613771e+15 </wgt>
<wgt id='1730'> +1.3868712e+15 </wgt>
<wgt id='1731'> +1.4110390e+15 </wgt>
<wgt id='1732'> +1.3695941e+15 </wgt>
<wgt id='1733'> +1.3635988e+15 </wgt>
<wgt id='1734'> +1.4109513e+15 </wgt>
<wgt id='1735'> +1.3599487e+15 </wgt>
<wgt id='1736'> +1.3782929e+15 </wgt>
<wgt id='1737'> +1.3243694e+15 </wgt>
<wgt id='1738'> +1.3614631e+15 </wgt>
<wgt id='1739'> +1.4214032e+15 </wgt>
<wgt id='1740'> +1.3384710e+15 </wgt>
<wgt id='1741'> +1.3401017e+15 </wgt>
<wgt id='1742'> +1.3702609e+15 </wgt>
<wgt id='1743'> +1.3522051e+15 </wgt>
<wgt id='1744'> +1.3739204e+15 </wgt>
<wgt id='1745'> +1.3963262e+15 </wgt>
<wgt id='1746'> +1.3475550e+15 </wgt>
<wgt id='1747'> +1.3288289e+15 </wgt>
<wgt id='1748'> +1.3503293e+15 </wgt>
<wgt id='1749'> +1.3188992e+15 </wgt>
<wgt id='1750'> +1.3269500e+15 </wgt>
<wgt id='1751'> +1.3856523e+15 </wgt>
<wgt id='1752'> +1.4231006e+15 </wgt>
<wgt id='1753'> +1.3706541e+15 </wgt>
<wgt id='1754'> +1.3887259e+15 </wgt>
<wgt id='1755'> +1.3540763e+15 </wgt>
<wgt id='1756'> +1.4294131e+15 </wgt>
<wgt id='1757'> +1.3984687e+15 </wgt>
<wgt id='1758'> +1.3503731e+15 </wgt>
<wgt id='1759'> +1.3487612e+15 </wgt>
<wgt id='1760'> +1.3879414e+15 </wgt>
<wgt id='1761'> +1.3962957e+15 </wgt>
<wgt id='1762'> +1.3789559e+15 </wgt>
<wgt id='1763'> +1.3916884e+15 </wgt>
<wgt id='1764'> +1.3490420e+15 </wgt>
<wgt id='1765'> +1.3455146e+15 </wgt>
<wgt id='1766'> +1.3532067e+15 </wgt>
<wgt id='1767'> +1.3346760e+15 </wgt>
<wgt id='1768'> +1.3980881e+15 </wgt>
<wgt id='1769'> +1.3454552e+15 </wgt>
<wgt id='1770'> +1.3618039e+15 </wgt>
<wgt id='1771'> +1.3722071e+15 </wgt>
<wgt id='1772'> +1.3438756e+15 </wgt>
<wgt id='1773'> +1.3508663e+15 </wgt>
<wgt id='1774'> +1.3578024e+15 </wgt>
<wgt id='1775'> +1.3637609e+15 </wgt>
<wgt id='1776'> +1.3741235e+15 </wgt>
<wgt id='1777'> +1.3787024e+15 </wgt>
<wgt id='1778'> +1.3287026e+15 </wgt>
<wgt id='1779'> +1.3576966e+15 </wgt>
<wgt id='1780'> +1.3681254e+15 </wgt>
<wgt id='1781'> +1.3650323e+15 </wgt>
<wgt id='1782'> +1.3729220e+15 </wgt>
<wgt id='1783'> +1.3536812e+15 </wgt>
<wgt id='1784'> +1.3436083e+15 </wgt>
<wgt id='1785'> +1.3687535e+15 </wgt>
<wgt id='1786'> +1.3981945e+15 </wgt>
<wgt id='1787'> +1.3438257e+15 </wgt>
<wgt id='1788'> +1.3670587e+15 </wgt>
<wgt id='1789'> +1.3764079e+15 </wgt>
<wgt id='1790'> +1.3557048e+15 </wgt>
<wgt id='1791'> +1.3731586e+15 </wgt>
<wgt id='1792'> +1.3723603e+15 </wgt>
<wgt id='1793'> +1.3442675e+15 </wgt>
<wgt id='1794'> +1.3675980e+15 </wgt>
<wgt id='1795'> +1.3591735e+15 </wgt>
<wgt id='1796'> +1.3582490e+15 </wgt>
<wgt id='1797'> +1.3660481e+15 </wgt>
<wgt id='1798'> +1.3957438e+15 </wgt>
<wgt id='1799'> +1.3378264e+15 </wgt>
<wgt id='1800'> +1.4002363e+15 </wgt>
<wgt id='1801'> +1.3513743e+15 </wgt>
<wgt id='1802'> +1.3664317e+15 </wgt>
<wgt id='1803'> +1.3666064e+15 </wgt>
<wgt id='1804'> +1.3558679e+15 </wgt>
<wgt id='1805'> +1.3596816e+15 </wgt>
<wgt id='1806'> +1.3678169e+15 </wgt>
<wgt id='1807'> +1.3844617e+15 </wgt>
<wgt id='1808'> +1.3700122e+15 </wgt>
<wgt id='1809'> +1.3856903e+15 </wgt>
<wgt id='1810'> +1.3727077e+15 </wgt>
<wgt id='1811'> +1.3463054e+15 </wgt>
<wgt id='1812'> +1.3222336e+15 </wgt>
<wgt id='1813'> +1.3577469e+15 </wgt>
<wgt id='1814'> +1.3566529e+15 </wgt>
<wgt id='1815'> +1.3451952e+15 </wgt>
<wgt id='1816'> +1.4220860e+15 </wgt>
<wgt id='1817'> +1.4486956e+15 </wgt>
<wgt id='1818'> +1.4526563e+15 </wgt>
<wgt id='1819'> +1.3863520e+15 </wgt>
<wgt id='1820'> +1.3836652e+15 </wgt>
<wgt id='1821'> +1.4507326e+15 </wgt>
<wgt id='1822'> +1.4489131e+15 </wgt>
<wgt id='1823'> +1.4187018e+15 </wgt>
<wgt id='1824'> +1.4649096e+15 </wgt>
<wgt id='1825'> +1.3828852e+15 </wgt>
<wgt id='1826'> +1.4027589e+15 </wgt>
<wgt id='1827'> +1.4055901e+15 </wgt>
<wgt id='1828'> +1.4328549e+15 </wgt>
<wgt id='1829'> +1.4876905e+15 </wgt>
<wgt id='1830'> +1.4424890e+15 </wgt>
<wgt id='1831'> +1.4817153e+15 </wgt>
<wgt id='1832'> +1.4313186e+15 </wgt>
<wgt id='1833'> +1.5265639e+15 </wgt>
<wgt id='1834'> +1.4731510e+15 </wgt>
<wgt id='1835'> +1.4123066e+15 </wgt>
<wgt id='1836'> +1.4146854e+15 </wgt>
<wgt id='1837'> +1.4067360e+15 </wgt>
<wgt id='1838'> +1.3672312e+15 </wgt>
<wgt id='1839'> +1.4104845e+15 </wgt>
<wgt id='1840'> +1.3354478e+15 </wgt>
<wgt id='1841'> +1.4217144e+15 </wgt>
<wgt id='1842'> +1.3892553e+15 </wgt>
<wgt id='1843'> +1.5105569e+15 </wgt>
<wgt id='1844'> +1.4632436e+15 </wgt>
<wgt id='1845'> +1.4562160e+15 </wgt>
<wgt id='1846'> +1.3890793e+15 </wgt>
<wgt id='1847'> +1.3870555e+15 </wgt>
<wgt id='1848'> +1.3846575e+15 </wgt>
<wgt id='1849'> +1.3975924e+15 </wgt>
<wgt id='1850'> +1.3363664e+15 </wgt>
<wgt id='1851'> +1.4142331e+15 </wgt>
<wgt id='1852'> +1.4224377e+15 </wgt>
<wgt id='1853'> +1.4864640e+15 </wgt>
<wgt id='1854'> +1.4378669e+15 </wgt>
<wgt id='1855'> +1.4141612e+15 </wgt>
<wgt id='1856'> +1.3902948e+15 </wgt>
<wgt id='1857'> +1.4084073e+15 </wgt>
<wgt id='1858'> +1.3991260e+15 </wgt>
<wgt id='1859'> +1.3522664e+15 </wgt>
<wgt id='1860'> +1.3774872e+15 </wgt>
<wgt id='1861'> +1.3795980e+15 </wgt>
<wgt id='1862'> +1.3695245e+15 </wgt>
<wgt id='1863'> +1.4582522e+15 </wgt>
<wgt id='1864'> +1.4512094e+15 </wgt>
<wgt id='1865'> +1.4605444e+15 </wgt>
<wgt id='1866'> +1.4256624e+15 </wgt>
<wgt id='1867'> +1.3983853e+15 </wgt>
<wgt id='1868'> +1.4051228e+15 </wgt>
<wgt id='1869'> +1.3491069e+15 </wgt>
<wgt id='1870'> +1.4686681e+15 </wgt>
<wgt id='1871'> +1.4032810e+15 </wgt>
<wgt id='1872'> +1.4811873e+15 </wgt>
<wgt id='1873'> +1.4411197e+15 </wgt>
<wgt id='1874'> +1.4263917e+15 </wgt>
<wgt id='1875'> +1.4315155e+15 </wgt>
<wgt id='1876'> +1.4158616e+15 </wgt>
<wgt id='1877'> +1.4387674e+15 </wgt>
<wgt id='1878'> +1.3994431e+15 </wgt>
<wgt id='1879'> +1.4059500e+15 </wgt>
<wgt id='1880'> +1.4867812e+15 </wgt>
<wgt id='1881'> +1.3130284e+15 </wgt>
<wgt id='1882'> +1.4056722e+15 </wgt>
<wgt id='1883'> +1.4532774e+15 </wgt>
<wgt id='1884'> +1.3927835e+15 </wgt>
<wgt id='1885'> +1.4191400e+15 </wgt>
<wgt id='1886'> +1.4391695e+15 </wgt>
<wgt id='1887'> +1.3642498e+15 </wgt>
<wgt id='1888'> +1.4157902e+15 </wgt>
<wgt id='1889'> +1.4378943e+15 </wgt>
<wgt id='1890'> +1.4084933e+15 </wgt>
<wgt id='1891'> +1.4516556e+15 </wgt>
<wgt id='1892'> +1.3434798e+15 </wgt>
<wgt id='1893'> +1.3831222e+15 </wgt>
<wgt id='1894'> +1.4550143e+15 </wgt>
<wgt id='1895'> +1.4275637e+15 </wgt>
<wgt id='1896'> +1.4244717e+15 </wgt>
<wgt id='1897'> +1.3617889e+15 </wgt>
<wgt id='1898'> +1.4192337e+15 </wgt>
<wgt id='1899'> +1.4390859e+15 </wgt>
<wgt id='1900'> +1.4372949e+15 </wgt>
<wgt id='1901'> +1.4524064e+15 </wgt>
<wgt id='1902'> +1.4525693e+15 </wgt>
<wgt id='1903'> +1.4156873e+15 </wgt>
<wgt id='1904'> +1.4441876e+15 </wgt>
<wgt id='1905'> +1.4636982e+15 </wgt>
<wgt id='1906'> +1.4084557e+15 </wgt>
<wgt id='1907'> +1.4411176e+15 </wgt>
<wgt id='1908'> +1.3874354e+15 </wgt>
<wgt id='1909'> +1.4710195e+15 </wgt>
<wgt id='1910'> +1.4064982e+15 </wgt>
<wgt id='1911'> +1.5323871e+15 </wgt>
<wgt id='1912'> +1.3752197e+15 </wgt>
<wgt id='1913'> +1.4225489e+15 </wgt>
<wgt id='1914'> +1.3609754e+15 </wgt>
<wgt id='1915'> +1.4720996e+15 </wgt>
<wgt id='1916'> +1.5066127e+15 </wgt>
<wgt id='1917'> +1.4122136e+15 </wgt>
<wgt id='1918'> +1.1504272e+15 </wgt>
<wgt id='1919'> +1.4220860e+15 </wgt>
<wgt id='1920'> +1.4486956e+15 </wgt>
<wgt id='1921'> +1.4526563e+15 </wgt>
<wgt id='1922'> +1.3863520e+15 </wgt>
<wgt id='1923'> +1.3836652e+15 </wgt>
<wgt id='1924'> +1.4507326e+15 </wgt>
<wgt id='1925'> +1.4489131e+15 </wgt>
<wgt id='1926'> +1.4187018e+15 </wgt>
<wgt id='1927'> +1.4649096e+15 </wgt>
<wgt id='1928'> +1.3828852e+15 </wgt>
<wgt id='1929'> +1.4027589e+15 </wgt>
<wgt id='1930'> +1.4055901e+15 </wgt>
<wgt id='1931'> +1.4328549e+15 </wgt>
<wgt id='1932'> +1.4876905e+15 </wgt>
<wgt id='1933'> +1.4424890e+15 </wgt>
<wgt id='1934'> +1.4817153e+15 </wgt>
<wgt id='1935'> +1.4313186e+15 </wgt>
<wgt id='1936'> +1.5265639e+15 </wgt>
<wgt id='1937'> +1.4731510e+15 </wgt>
<wgt id='1938'> +1.4123066e+15 </wgt>
<wgt id='1939'> +1.4146854e+15 </wgt>
<wgt id='1940'> +1.4067360e+15 </wgt>
<wgt id='1941'> +1.3672312e+15 </wgt>
<wgt id='1942'> +1.4104845e+15 </wgt>
<wgt id='1943'> +1.3354478e+15 </wgt>
<wgt id='1944'> +1.4217144e+15 </wgt>
<wgt id='1945'> +1.3892553e+15 </wgt>
<wgt id='1946'> +1.5105569e+15 </wgt>
<wgt id='1947'> +1.4632436e+15 </wgt>
<wgt id='1948'> +1.4562160e+15 </wgt>
<wgt id='1949'> +1.3890793e+15 </wgt>
<wgt id='1950'> +1.3870555e+15 </wgt>
<wgt id='1951'> +1.3846575e+15 </wgt>
<wgt id='1952'> +1.3975924e+15 </wgt>
<wgt id='1953'> +1.3363664e+15 </wgt>
<wgt id='1954'> +1.4142331e+15 </wgt>
<wgt id='1955'> +1.4224377e+15 </wgt>
<wgt id='1956'> +1.4864640e+15 </wgt>
<wgt id='1957'> +1.4378669e+15 </wgt>
<wgt id='1958'> +1.4141612e+15 </wgt>
<wgt id='1959'> +1.3902948e+15 </wgt>
<wgt id='1960'> +1.4084073e+15 </wgt>
<wgt id='1961'> +1.3991260e+15 </wgt>
<wgt id='1962'> +1.3522664e+15 </wgt>
<wgt id='1963'> +1.3774872e+15 </wgt>
<wgt id='1964'> +1.3795980e+15 </wgt>
<wgt id='1965'> +1.3695245e+15 </wgt>
<wgt id='1966'> +1.4582522e+15 </wgt>
<wgt id='1967'> +1.4512094e+15 </wgt>
<wgt id='1968'> +1.4605444e+15 </wgt>
<wgt id='1969'> +1.4256624e+15 </wgt>
<wgt id='1970'> +1.3983853e+15 </wgt>
<wgt id='1971'> +1.4051228e+15 </wgt>
<wgt id='1972'> +1.3491069e+15 </wgt>
<wgt id='1973'> +1.4686681e+15 </wgt>
<wgt id='1974'> +1.4032810e+15 </wgt>
<wgt id='1975'> +1.4811873e+15 </wgt>
<wgt id='1976'> +1.4411197e+15 </wgt>
<wgt id='1977'> +1.4263917e+15 </wgt>
<wgt id='1978'> +1.4315155e+15 </wgt>
<wgt id='1979'> +1.4158616e+15 </wgt>
<wgt id='1980'> +1.4387674e+15 </wgt>
<wgt id='1981'> +1.3994431e+15 </wgt>
<wgt id='1982'> +1.4059500e+15 </wgt>
<wgt id='1983'> +1.4867812e+15 </wgt>
<wgt id='1984'> +1.3130284e+15 </wgt>
<wgt id='1985'> +1.4056722e+15 </wgt>
<wgt id='1986'> +1.4532774e+15 </wgt>
<wgt id='1987'> +1.3927835e+15 </wgt>
<wgt id='1988'> +1.4191400e+15 </wgt>
<wgt id='1989'> +1.4391695e+15 </wgt>
<wgt id='1990'> +1.3642498e+15 </wgt>
<wgt id='1991'> +1.4157902e+15 </wgt>
<wgt id='1992'> +1.4378943e+15 </wgt>
<wgt id='1993'> +1.4084933e+15 </wgt>
<wgt id='1994'> +1.4516556e+15 </wgt>
<wgt id='1995'> +1.3434798e+15 </wgt>
<wgt id='1996'> +1.3831222e+15 </wgt>
<wgt id='1997'> +1.4550143e+15 </wgt>
<wgt id='1998'> +1.4275637e+15 </wgt>
<wgt id='1999'> +1.4244717e+15 </wgt>
<wgt id='2000'> +1.3617889e+15 </wgt>
<wgt id='2001'> +1.4192337e+15 </wgt>
<wgt id='2002'> +1.4390859e+15 </wgt>
<wgt id='2003'> +1.4372949e+15 </wgt>
<wgt id='2004'> +1.4524064e+15 </wgt>
<wgt id='2005'> +1.4525693e+15 </wgt>
<wgt id='2006'> +1.4156873e+15 </wgt>
<wgt id='2007'> +1.4441876e+15 </wgt>
<wgt id='2008'> +1.4636982e+15 </wgt>
<wgt id='2009'> +1.4084557e+15 </wgt>
<wgt id='2010'> +1.4411176e+15 </wgt>
<wgt id='2011'> +1.3874354e+15 </wgt>
<wgt id='2012'> +1.4710195e+15 </wgt>
<wgt id='2013'> +1.4064982e+15 </wgt>
<wgt id='2014'> +1.5323871e+15 </wgt>
<wgt id='2015'> +1.3752197e+15 </wgt>
<wgt id='2016'> +1.4225489e+15 </wgt>
<wgt id='2017'> +1.3609754e+15 </wgt>
<wgt id='2018'> +1.4720996e+15 </wgt>
<wgt id='2019'> +1.5066127e+15 </wgt>
<wgt id='2020'> +1.4290194e+15 </wgt>
<wgt id='2021'> +1.4189870e+15 </wgt>
<wgt id='2022'> +1.3906420e+15 </wgt>
</rwgt>
</event>
<event>
 9      1 +1.3250000e+15 9.99999400e+02 7.81738600e-03 8.18909000e-02
       21 -1    0    0  502  501 +0.0000000000e+00 +0.0000000000e+00 +1.6783560773e+02 1.6783560773e+02 0.0000000000e+00 0.0000e+00 1.0000e+00
       21 -1    0    0  501  502 -0.0000000000e+00 -0.0000000000e+00 -1.4895509157e+03 1.4895509157e+03 0.0000000000e+00 0.0000e+00 1.0000e+00
       45  2    1    2    0    0 -2.8421709430e-14 +0.0000000000e+00 -1.3217153080e+03 1.6573865234e+03 9.9999936638e+02 0.0000e+00 0.0000e+00
       25  2    3    3    0    0 -2.4683494799e+02 -4.1937121091e+02 -6.9754304495e+02 8.5964550623e+02 1.2499757090e+02 0.0000e+00 0.0000e+00
       35  2    3    3    0    0 +2.4683494799e+02 +4.1937121091e+02 -6.2417226301e+02 7.9774101720e+02 1.0000006262e+02 0.0000e+00 0.0000e+00
       22  1    5    5    0    0 +5.1768510105e+01 +1.7769391928e+02 -2.0741380042e+02 2.7798487763e+02 0.0000000000e+00 0.0000e+00 1.0000e+00
       22  1    5    5    0    0 +1.9506643789e+02 +2.4167729163e+02 -4.1675846259e+02 5.1975613957e+02 0.0000000000e+00 0.0000e+00 1.0000e+00
      -15  1    4    4    0    0 -1.4655698376e+02 -3.1783860690e+02 -4.1333471257e+02 5.4161708972e+02 1.7770000000e+00 0.0000e+00 -1.0000e+00
       15  1    4    4    0    0 -1.0027796423e+02 -1.0153260401e+02 -2.8420833238e+02 3.1802841651e+02 1.7770000000e+00 0.0000e+00 -1.0000e+00
<mgrwt>
<rscale>  0 0.99999937E+03</rscale>
<asrwt>0</asrwt>
<pdfrwt beam="1">  1       21 0.25820864E-01 0.99999937E+03</pdfrwt>
<pdfrwt beam="2">  1       21 0.22916167E+00 0.99999937E+03</pdfrwt>
<totfact> 0.90587003E+02</totfact>
</mgrwt>
<rwgt>
<wgt id='1001'> +1.3250000e+15 </wgt>
<wgt id='1002'> +1.3272414e+15 </wgt>
<wgt id='1003'> +1.3272392e+15 </wgt>
<wgt id='1004'> +1.4709535e+15 </wgt>
<wgt id='1005'> +1.3250000e+15 </wgt>
<wgt id='1006'> +1.3250000e+15 </wgt>
<wgt id='1007'> +1.3272414e+15 </wgt>
<wgt id='1008'> +1.3272392e+15 </wgt>
<wgt id='1009'> +1.4709535e+15 </wgt>
<wgt id='1010'> +1.3250000e+15 </wgt>
<wgt id='1011'> +1.3250000e+15 </wgt>
<wgt id='1012'> +1.3272414e+15 </wgt>
<wgt id='1013'> +1.3272392e+15 </wgt>
<wgt id='1014'> +1.4709535e+15 </wgt>
<wgt id='1015'> +1.3250000e+15 </wgt>
<wgt id='1016'> +1.2022593e+15 </wgt>
<wgt id='1017'> +1.2041836e+15 </wgt>
<wgt id='1018'> +1.2041817e+15 </wgt>
<wgt id='1019'> +1.3272392e+15 </wgt>
<wgt id='1020'> +1.2022593e+15 </wgt>
<wgt id='1021'> +1.2022593e+15 </wgt>
<wgt id='1022'> +1.2041836e+15 </wgt>
<wgt id='1023'> +1.2041817e+15 </wgt>
<wgt id='1024'> +1.3272392e+15 </wgt>
<wgt id='1025'> +1.2022593e+15 </wgt>
<wgt id='1026'> +1.2022593e+15 </wgt>
<wgt id='1027'> +1.2041836e+15 </wgt>
<wgt id='1028'> +1.2041817e+15 </wgt>
<wgt id='1029'> +1.3272392e+15 </wgt>
<wgt id='1030'> +1.2022593e+15 </wgt>
<wgt id='1031'> +1.4683385e+15 </wgt>
<wgt id='1032'> +1.4709561e+15 </wgt>
<wgt id='1033'> +1.4709535e+15 </wgt>
<wgt id='1034'> +1.6396695e+15 </wgt>
<wgt id='1035'> +1.4683385e+15 </wgt>
<wgt id='1036'> +1.4683385e+15 </wgt>
<wgt id='1037'> +1.4709561e+15 </wgt>
<wgt id='1038'> +1.4709535e+15 </wgt>
<wgt id='1039'> +1.6396695e+15 </wgt>
<wgt id='1040'> +1.4683385e+15 </wgt>
<wgt id='1041'> +1.4683385e+15 </wgt>
<wgt id='1042'> +1.4709561e+15 </wgt>
<wgt id='1043'> +1.4709535e+15 </wgt>
<wgt id='1044'> +1.6396695e+15 </wgt>
<wgt id='1045'> +1.4683385e+15 </wgt>
<wgt id='1046'> +1.3250000e+15 </wgt>
<wgt id='1047'> +1.3250000e+15 </wgt>
<wgt id='1048'> +1.3250000e+15 </wgt>
<wgt id='1049'> +1.3243324e+15 </wgt>
<wgt id='1050'> +1.3234137e+15 </wgt>
<wgt id='1051'> +1.3237252e+15 </wgt>
<wgt id='1052'> +1.3280966e+15 </wgt>
<wgt id='1053'> +1.3172718e+15 </wgt>
<wgt id='1054'> +1.3281297e+15 </wgt>
<wgt id='1055'> +1.3213205e+15 </wgt>
<wgt id='1056'> +1.3208949e+15 </wgt>
<wgt id='1057'> +1.3195763e+15 </wgt>
<wgt id='1058'> +1.3201851e+15 </wgt>
<wgt id='1059'> +1.3316007e+15 </wgt>
<wgt id='1060'> +1.3283922e+15 </wgt>
<wgt id='1061'> +1.3269908e+15 </wgt>
<wgt id='1062'> +1.3279387e+15 </wgt>
<wgt id='1063'> +1.3308258e+15 </wgt>
<wgt id='1064'> +1.3271454e+15 </wgt>
<wgt id='1065'> +1.3293509e+15 </wgt>
<wgt id='1066'> +1.3201817e+15 </wgt>
<wgt id='1067'> +1.3252403e+15 </wgt>
<wgt id='1068'> +1.3262186e+15 </wgt>
<wgt id='1069'> +1.3236799e+15 </wgt>
<wgt id='1070'> +1.3270658e+15 </wgt>
<wgt id='1071'> +1.3220043e+15 </wgt>
<wgt id='1072'> +1.3294060e+15 </wgt>
<wgt id='1073'> +1.3177431e+15 </wgt>
<wgt id='1074'> +1.3191005e+15 </wgt>
<wgt id='1075'> +1.3258125e+15 </wgt>
<wgt id='1076'> +1.3183804e+15 </wgt>
<wgt id='1077'> +1.3194814e+15 </wgt>
<wgt id='1078'> +1.3273738e+15 </wgt>
<wgt id='1079'> +1.3202576e+15 </wgt>
<wgt id='1080'> +1.3219715e+15 </wgt>
<wgt id='1081'> +1.3234309e+15 </wgt>
<wgt id='1082'> +1.3213704e+15 </wgt>
<wgt id='1083'> +1.3302641e+15 </wgt>
<wgt id='1084'> +1.3272719e+15 </wgt>
<wgt id='1085'> +1.3207820e+15 </wgt>
<wgt id='1086'> +1.3274042e+15 </wgt>
<wgt id='1087'> +1.3255178e+15 </wgt>
<wgt id='1088'> +1.3223242e+15 </wgt>
<wgt id='1089'> +1.3208091e+15 </wgt>
<wgt id='1090'> +1.3286237e+15 </wgt>
<wgt id='1091'> +1.3258925e+15 </wgt>
<wgt id='1092'> +1.3258428e+15 </wgt>
<wgt id='1093'> +1.3251004e+15 </wgt>
<wgt id='1094'> +1.3185305e+15 </wgt>
<wgt id='1095'> +1.3264227e+15 </wgt>
<wgt id='1096'> +1.3248516e+15 </wgt>
<wgt id='1097'> +1.3221032e+15 </wgt>
<wgt id='1098'> +1.3237881e+15 </wgt>
<wgt id='1099'> +1.3239865e+15 </wgt>
<wgt id='1100'> +1.3273662e+15 </wgt>
<wgt id='1101'> +1.3248656e+15 </wgt>
<wgt id='1102'> +1.3243909e+15 </wgt>
<wgt id='1103'> +1.3209719e+15 </wgt>
<wgt id='1104'> +1.3252207e+15 </wgt>
<wgt id='1105'> +1.3254119e+15 </wgt>
<wgt id='1106'> +1.3268403e+15 </wgt>
<wgt id='1107'> +1.3265967e+15 </wgt>
<wgt id='1108'> +1.3239200e+15 </wgt>
<wgt id='1109'> +1.3244241e+15 </wgt>
<wgt id='1110'> +1.3258721e+15 </wgt>
<wgt id='1111'> +1.3265599e+15 </wgt>
<wgt id='1112'> +1.3245456e+15 </wgt>
<wgt id='1113'> +1.3265931e+15 </wgt>
<wgt id='1114'> +1.3237918e+15 </wgt>
<wgt id='1115'> +1.3222223e+15 </wgt>
<wgt id='1116'> +1.3287623e+15 </wgt>
<wgt id='1117'> +1.3246731e+15 </wgt>
<wgt id='1118'> +1.3269382e+15 </wgt>
<wgt id='1119'> +1.3229384e+15 </wgt>
<wgt id='1120'> +1.3226165e+15 </wgt>
<wgt id='1121'> +1.3253290e+15 </wgt>
<wgt id='1122'> +1.3230081e+15 </wgt>
<wgt id='1123'> +1.3246709e+15 </wgt>
<wgt id='1124'> +1.3254966e+15 </wgt>
<wgt id='1125'> +1.3259416e+15 </wgt>
<wgt id='1126'> +1.3255982e+15 </wgt>
<wgt id='1127'> +1.3244656e+15 </wgt>
<wgt id='1128'> +1.3245232e+15 </wgt>
<wgt id='1129'> +1.3239564e+15 </wgt>
<wgt id='1130'> +1.3251708e+15 </wgt>
<wgt id='1131'> +1.3277701e+15 </wgt>
<wgt id='1132'> +1.3244177e+15 </wgt>
<wgt id='1133'> +1.3257822e+15 </wgt>
<wgt id='1134'> +1.3247973e+15 </wgt>
<wgt id='1135'> +1.3251972e+15 </wgt>
<wgt id='1136'> +1.3242490e+15 </wgt>
<wgt id='1137'> +1.3239357e+15 </wgt>
<wgt id='1138'> +1.3256645e+15 </wgt>
<wgt id='1139'> +1.3257068e+15 </wgt>
<wgt id='1140'> +1.3263103e+15 </wgt>
<wgt id='1141'> +1.3235777e+15 </wgt>
<wgt id='1142'> +1.3251930e+15 </wgt>
<wgt id='1143'> +1.3259564e+15 </wgt>
<wgt id='1144'> +1.3245288e+15 </wgt>
<wgt id='1145'> +1.3257709e+15 </wgt>
<wgt id='1146'> +1.3255298e+15 </wgt>
<wgt id='1147'> +1.3253088e+15 </wgt>
<wgt id='1148'> +1.3250000e+15 </wgt>
<wgt id='1149'> +1.3250000e+15 </wgt>
<wgt id='1150'> +1.3632105e+15 </wgt>
<wgt id='1151'> +1.2981679e+15 </wgt>
<wgt id='1152'> +1.2755439e+15 </wgt>
<wgt id='1153'> +1.3347570e+15 </wgt>
<wgt id='1154'> +1.2995894e+15 </wgt>
<wgt id='1155'> +1.3733847e+15 </wgt>
<wgt id='1156'> +1.3111733e+15 </wgt>
<wgt id='1157'> +1.2919069e+15 </wgt>
<wgt id='1158'> +1.3089387e+15 </wgt>
<wgt id='1159'> +1.3757351e+15 </wgt>
<wgt id='1160'> +1.3338045e+15 </wgt>
<wgt id='1161'> +1.3644404e+15 </wgt>
<wgt id='1162'> +1.3434395e+15 </wgt>
<wgt id='1163'> +1.3354905e+15 </wgt>
<wgt id='1164'> +1.3150357e+15 </wgt>
<wgt id='1165'> +1.3016819e+15 </wgt>
<wgt id='1166'> +1.3283265e+15 </wgt>
<wgt id='1167'> +1.2995746e+15 </wgt>
<wgt id='1168'> +1.2837001e+15 </wgt>
<wgt id='1169'> +1.3041015e+15 </wgt>
<wgt id='1170'> +1.3292299e+15 </wgt>
<wgt id='1171'> +1.2907872e+15 </wgt>
<wgt id='1172'> +1.2772498e+15 </wgt>
<wgt id='1173'> +1.3308716e+15 </wgt>
<wgt id='1174'> +1.2935185e+15 </wgt>
<wgt id='1175'> +1.3097629e+15 </wgt>
<wgt id='1176'> +1.3596345e+15 </wgt>
<wgt id='1177'> +1.2979963e+15 </wgt>
<wgt id='1178'> +1.3432834e+15 </wgt>
<wgt id='1179'> +1.3613186e+15 </wgt>
<wgt id='1180'> +1.2847166e+15 </wgt>
<wgt id='1181'> +1.3691400e+15 </wgt>
<wgt id='1182'> +1.3178887e+15 </wgt>
<wgt id='1183'> +1.3330024e+15 </wgt>
<wgt id='1184'> +1.2726326e+15 </wgt>
<wgt id='1185'> +1.3487920e+15 </wgt>
<wgt id='1186'> +1.3122232e+15 </wgt>
<wgt id='1187'> +1.3402530e+15 </wgt>
<wgt id='1188'> +1.3771651e+15 </wgt>
<wgt id='1189'> +1.3175825e+15 </wgt>
<wgt id='1190'> +1.3130290e+15 </wgt>
<wgt id='1191'> +1.3430696e+15 </wgt>
<wgt id='1192'> +1.3407277e+15 </wgt>
<wgt id='1193'> +1.3355200e+15 </wgt>
<wgt id='1194'> +1.2961780e+15 </wgt>
<wgt id='1195'> +1.3517070e+15 </wgt>
<wgt id='1196'> +1.3409512e+15 </wgt>
<wgt id='1197'> +1.3439351e+15 </wgt>
<wgt id='1198'> +1.3576159e+15 </wgt>
<wgt id='1199'> +1.3327922e+15 </wgt>
<wgt id='1200'> +1.3680090e+15 </wgt>
<wgt id='1201'> +1.3206710e+15 </wgt>
<wgt id='1202'> +1.3331905e+15 </wgt>
<wgt id='1203'> +1.3441078e+15 </wgt>
<wgt id='1204'> +1.2944697e+15 </wgt>
<wgt id='1205'> +1.3350028e+15 </wgt>
<wgt id='1206'> +1.3166500e+15 </wgt>
<wgt id='1207'> +1.3591774e+15 </wgt>
<wgt id='1208'> +1.2875941e+15 </wgt>
<wgt id='1209'> +1.3365794e+15 </wgt>
<wgt id='1210'> +1.3446529e+15 </wgt>
<wgt id='1211'> +1.3008223e+15 </wgt>
<wgt id='1212'> +1.3162456e+15 </wgt>
<wgt id='1213'> +1.3247448e+15 </wgt>
<wgt id='1214'> +1.3097712e+15 </wgt>
<wgt id='1215'> +1.2927184e+15 </wgt>
<wgt id='1216'> +1.2637825e+15 </wgt>
<wgt id='1217'> +1.3346302e+15 </wgt>
<wgt id='1218'> +1.3243140e+15 </wgt>
<wgt id='1219'> +1.3571846e+15 </wgt>
<wgt id='1220'> +1.3330371e+15 </wgt>
<wgt id='1221'> +1.3208492e+15 </wgt>
<wgt id='1222'> +1.3105111e+15 </wgt>
<wgt id='1223'> +1.3030924e+15 </wgt>
<wgt id='1224'> +1.3204855e+15 </wgt>
<wgt id='1225'> +1.3126900e+15 </wgt>
<wgt id='1226'> +1.3267047e+15 </wgt>
<wgt id='1227'> +1.3250433e+15 </wgt>
<wgt id='1228'> +1.3241769e+15 </wgt>
<wgt id='1229'> +1.3808202e+15 </wgt>
<wgt id='1230'> +1.3289756e+15 </wgt>
<wgt id='1231'> +1.3016819e+15 </wgt>
<wgt id='1232'> +1.3459776e+15 </wgt>
<wgt id='1233'> +1.3000550e+15 </wgt>
<wgt id='1234'> +1.3265116e+15 </wgt>
<wgt id='1235'> +1.3861271e+15 </wgt>
<wgt id='1236'> +1.3217255e+15 </wgt>
<wgt id='1237'> +1.3569426e+15 </wgt>
<wgt id='1238'> +1.3110552e+15 </wgt>
<wgt id='1239'> +1.3240326e+15 </wgt>
<wgt id='1240'> +1.2730193e+15 </wgt>
<wgt id='1241'> +1.3677049e+15 </wgt>
<wgt id='1242'> +1.3243042e+15 </wgt>
<wgt id='1243'> +1.3186757e+15 </wgt>
<wgt id='1244'> +1.3537974e+15 </wgt>
<wgt id='1245'> +1.2747687e+15 </wgt>
<wgt id='1246'> +1.4018392e+15 </wgt>
<wgt id='1247'> +1.3156050e+15 </wgt>
<wgt id='1248'> +1.2848550e+15 </wgt>
<wgt id='1249'> +1.2914527e+15 </wgt>
<wgt id='1250'> +1.4396049e+15 </wgt>
<wgt id='1251'> +1.4096708e+15 </wgt>
<wgt id='1252'> +1.4640496e+15 </wgt>
<wgt id='1253'> +1.4421941e+15 </wgt>
<wgt id='1254'> +1.6871612e+15 </wgt>
<wgt id='1255'> +1.2113993e+15 </wgt>
<wgt id='1256'> +1.2127230e+15 </wgt>
<wgt id='1257'> +1.2106313e+15 </wgt>
<wgt id='1258'> +1.2116676e+15 </wgt>
<wgt id='1259'> +1.2112412e+15 </wgt>
<wgt id='1260'> +1.2090098e+15 </wgt>
<wgt id='1261'> +1.2145975e+15 </wgt>
<wgt id='1262'> +1.2093780e+15 </wgt>
<wgt id='1263'> +1.2125815e+15 </wgt>
<wgt id='1264'> +1.2111749e+15 </wgt>
<wgt id='1265'> +1.2114869e+15 </wgt>
<wgt id='1266'> +1.2150792e+15 </wgt>
<wgt id='1267'> +1.2077194e+15 </wgt>
<wgt id='1268'> +1.2150567e+15 </wgt>
<wgt id='1269'> +1.2074195e+15 </wgt>
<wgt id='1270'> +1.1873800e+15 </wgt>
<wgt id='1271'> +1.2387301e+15 </wgt>
<wgt id='1272'> +1.2023707e+15 </wgt>
<wgt id='1273'> +1.2183549e+15 </wgt>
<wgt id='1274'> +1.2226116e+15 </wgt>
<wgt id='1275'> +1.1977531e+15 </wgt>
<wgt id='1276'> +1.2453925e+15 </wgt>
<wgt id='1277'> +1.1778471e+15 </wgt>
<wgt id='1278'> +1.2042548e+15 </wgt>
<wgt id='1279'> +1.2167351e+15 </wgt>
<wgt id='1280'> +1.2114121e+15 </wgt>
<wgt id='1281'> +1.2127057e+15 </wgt>
<wgt id='1282'> +1.1908255e+15 </wgt>
<wgt id='1283'> +1.2287150e+15 </wgt>
<wgt id='1284'> +1.2170516e+15 </wgt>
<wgt id='1285'> +1.2068837e+15 </wgt>
<wgt id='1286'> +1.2139259e+15 </wgt>
<wgt id='1287'> +1.2112157e+15 </wgt>
<wgt id='1288'> +1.2196808e+15 </wgt>
<wgt id='1289'> +1.2074599e+15 </wgt>
<wgt id='1290'> +1.2115283e+15 </wgt>
<wgt id='1291'> +1.2113049e+15 </wgt>
<wgt id='1292'> +1.2189231e+15 </wgt>
<wgt id='1293'> +1.2003778e+15 </wgt>
<wgt id='1294'> +1.2239884e+15 </wgt>
<wgt id='1295'> +1.1943948e+15 </wgt>
<wgt id='1296'> +1.4358573e+15 </wgt>
<wgt id='1297'> +1.4416799e+15 </wgt>
<wgt id='1298'> +1.4311447e+15 </wgt>
<wgt id='1299'> +1.4344549e+15 </wgt>
<wgt id='1300'> +1.4373886e+15 </wgt>
<wgt id='1301'> +1.4354411e+15 </wgt>
<wgt id='1302'> +1.4364700e+15 </wgt>
<wgt id='1303'> +1.4367017e+15 </wgt>
<wgt id='1304'> +1.4352671e+15 </wgt>
<wgt id='1305'> +1.4345030e+15 </wgt>
<wgt id='1306'> +1.4378151e+15 </wgt>
<wgt id='1307'> +1.4275690e+15 </wgt>
<wgt id='1308'> +1.4409612e+15 </wgt>
<wgt id='1309'> +1.4363143e+15 </wgt>
<wgt id='1310'> +1.4353068e+15 </wgt>
<wgt id='1311'> +1.4337465e+15 </wgt>
<wgt id='1312'> +1.4365799e+15 </wgt>
<wgt id='1313'> +1.4111525e+15 </wgt>
<wgt id='1314'> +1.4671492e+15 </wgt>
<wgt id='1315'> +1.4395872e+15 </wgt>
<wgt id='1316'> +1.4324022e+15 </wgt>
<wgt id='1317'> +1.4784634e+15 </wgt>
<wgt id='1318'> +1.3672627e+15 </wgt>
<wgt id='1319'> +1.4071501e+15 </wgt>
<wgt id='1320'> +1.4546790e+15 </wgt>
<wgt id='1321'> +1.4184020e+15 </wgt>
<wgt id='1322'> +1.4444650e+15 </wgt>
<wgt id='1323'> +1.4269088e+15 </wgt>
<wgt id='1324'> +1.4466222e+15 </wgt>
<wgt id='1325'> +1.4226957e+15 </wgt>
<wgt id='1326'> +1.4587269e+15 </wgt>
<wgt id='1327'> +1.4292333e+15 </wgt>
<wgt id='1328'> +1.4385235e+15 </wgt>
<wgt id='1329'> +1.4397011e+15 </wgt>
<wgt id='1330'> +1.4335636e+15 </wgt>
<wgt id='1331'> +1.4487015e+15 </wgt>
<wgt id='1332'> +1.4293317e+15 </wgt>
<wgt id='1333'> +1.4143094e+15 </wgt>
<wgt id='1334'> +1.4702325e+15 </wgt>
<wgt id='1335'> +1.4397448e+15 </wgt>
<wgt id='1336'> +1.4349337e+15 </wgt>
<wgt id='1337'> +1.4358573e+15 </wgt>
<wgt id='1338'> +1.4444047e+15 </wgt>
<wgt id='1339'> +1.4414620e+15 </wgt>
<wgt id='1340'> +1.4385741e+15 </wgt>
<wgt id='1341'> +1.4341749e+15 </wgt>
<wgt id='1342'> +1.4321892e+15 </wgt>
<wgt id='1343'> +1.4304545e+15 </wgt>
<wgt id='1344'> +1.4076576e+15 </wgt>
<wgt id='1345'> +1.4146248e+15 </wgt>
<wgt id='1346'> +1.4007522e+15 </wgt>
<wgt id='1347'> +1.4076908e+15 </wgt>
<wgt id='1348'> +1.4076358e+15 </wgt>
<wgt id='1349'> +1.4079194e+15 </wgt>
<wgt id='1350'> +1.4074010e+15 </wgt>
<wgt id='1351'> +1.4075244e+15 </wgt>
<wgt id='1352'> +1.4078157e+15 </wgt>
<wgt id='1353'> +1.4074252e+15 </wgt>
<wgt id='1354'> +1.4078017e+15 </wgt>
<wgt id='1355'> +1.4091116e+15 </wgt>
<wgt id='1356'> +1.4065740e+15 </wgt>
<wgt id='1357'> +1.4015505e+15 </wgt>
<wgt id='1358'> +1.4113779e+15 </wgt>
<wgt id='1359'> +1.4087182e+15 </wgt>
<wgt id='1360'> +1.4048827e+15 </wgt>
<wgt id='1361'> +1.3573888e+15 </wgt>
<wgt id='1362'> +1.4530473e+15 </wgt>
<wgt id='1363'> +1.3969351e+15 </wgt>
<wgt id='1364'> +1.4212610e+15 </wgt>
<wgt id='1365'> +1.3989624e+15 </wgt>
<wgt id='1366'> +1.4115141e+15 </wgt>
<wgt id='1367'> +1.3951800e+15 </wgt>
<wgt id='1368'> +1.4137725e+15 </wgt>
<wgt id='1369'> +1.4381147e+15 </wgt>
<wgt id='1370'> +1.3824763e+15 </wgt>
<wgt id='1371'> +1.4013415e+15 </wgt>
<wgt id='1372'> +1.4181928e+15 </wgt>
<wgt id='1373'> +1.3836149e+15 </wgt>
<wgt id='1374'> +1.4281326e+15 </wgt>
<wgt id='1375'> +1.3929455e+15 </wgt>
<wgt id='1376'> +1.4125553e+15 </wgt>
<wgt id='1377'> +1.4009833e+15 </wgt>
<wgt id='1378'> +1.4196275e+15 </wgt>
<wgt id='1379'> +1.3975209e+15 </wgt>
<wgt id='1380'> +1.4192776e+15 </wgt>
<wgt id='1381'> +1.4176578e+15 </wgt>
<wgt id='1382'> +1.4076639e+15 </wgt>
<wgt id='1383'> +1.4075052e+15 </wgt>
<wgt id='1384'> +1.4108618e+15 </wgt>
<wgt id='1385'> +1.4076576e+15 </wgt>
<wgt id='1386'> +1.4159585e+15 </wgt>
<wgt id='1387'> +1.4128284e+15 </wgt>
<wgt id='1388'> +1.4099830e+15 </wgt>
<wgt id='1389'> +1.4057198e+15 </wgt>
<wgt id='1390'> +1.4038194e+15 </wgt>
<wgt id='1391'> +1.4024088e+15 </wgt>
<wgt id='1392'> +1.3840514e+15 </wgt>
<wgt id='1393'> +1.3848049e+15 </wgt>
<wgt id='1394'> +1.3832702e+15 </wgt>
<wgt id='1395'> +1.3850691e+15 </wgt>
<wgt id='1396'> +1.3833212e+15 </wgt>
<wgt id='1397'> +1.3922654e+15 </wgt>
<wgt id='1398'> +1.3761294e+15 </wgt>
<wgt id='1399'> +1.3829669e+15 </wgt>
<wgt id='1400'> +1.3855582e+15 </wgt>
<wgt id='1401'> +1.3842961e+15 </wgt>
<wgt id='1402'> +1.3836486e+15 </wgt>
<wgt id='1403'> +1.3837411e+15 </wgt>
<wgt id='1404'> +1.3845979e+15 </wgt>
<wgt id='1405'> +1.3842857e+15 </wgt>
<wgt id='1406'> +1.3837963e+15 </wgt>
<wgt id='1407'> +1.3854825e+15 </wgt>
<wgt id='1408'> +1.3831187e+15 </wgt>
<wgt id='1409'> +1.3802895e+15 </wgt>
<wgt id='1410'> +1.3882972e+15 </wgt>
<wgt id='1411'> +1.3820582e+15 </wgt>
<wgt id='1412'> +1.3855177e+15 </wgt>
<wgt id='1413'> +1.3790379e+15 </wgt>
<wgt id='1414'> +1.3892670e+15 </wgt>
<wgt id='1415'> +1.3769978e+15 </wgt>
<wgt id='1416'> +1.3907201e+15 </wgt>
<wgt id='1417'> +1.3723375e+15 </wgt>
<wgt id='1418'> +1.3987318e+15 </wgt>
<wgt id='1419'> +1.3812069e+15 </wgt>
<wgt id='1420'> +1.3842458e+15 </wgt>
<wgt id='1421'> +1.3582877e+15 </wgt>
<wgt id='1422'> +1.4156603e+15 </wgt>
<wgt id='1423'> +1.3358110e+15 </wgt>
<wgt id='1424'> +1.4232720e+15 </wgt>
<wgt id='1425'> +1.3878929e+15 </wgt>
<wgt id='1426'> +1.3791024e+15 </wgt>
<wgt id='1427'> +1.3908797e+15 </wgt>
<wgt id='1428'> +1.3687677e+15 </wgt>
<wgt id='1429'> +1.3819485e+15 </wgt>
<wgt id='1430'> +1.3843755e+15 </wgt>
<wgt id='1431'> +1.3761204e+15 </wgt>
<wgt id='1432'> +1.3919533e+15 </wgt>
<wgt id='1433'> +1.3634526e+15 </wgt>
<wgt id='1434'> +1.4090690e+15 </wgt>
<wgt id='1435'> +1.3875228e+15 </wgt>
<wgt id='1436'> +1.3852095e+15 </wgt>
<wgt id='1437'> +1.3808918e+15 </wgt>
<wgt id='1438'> +1.3924439e+15 </wgt>
<wgt id='1439'> +1.3725278e+15 </wgt>
<wgt id='1440'> +1.4099955e+15 </wgt>
<wgt id='1441'> +1.3772159e+15 </wgt>
<wgt id='1442'> +1.3878389e+15 </wgt>
<wgt id='1443'> +1.3897098e+15 </wgt>
<wgt id='1444'> +1.3906476e+15 </wgt>
<wgt id='1445'> +1.3888929e+15 </wgt>
<wgt id='1446'> +1.3909057e+15 </wgt>
<wgt id='1447'> +1.3890046e+15 </wgt>
<wgt id='1448'> +1.3982224e+15 </wgt>
<wgt id='1449'> +1.3818516e+15 </wgt>
<wgt id='1450'> +1.3882457e+15 </wgt>
<wgt id='1451'> +1.3914997e+15 </wgt>
<wgt id='1452'> +1.3899075e+15 </wgt>
<wgt id='1453'> +1.3895035e+15 </wgt>
<wgt id='1454'> +1.3895268e+15 </wgt>
<wgt id='1455'> +1.3902292e+15 </wgt>
<wgt id='1456'> +1.3900933e+15 </wgt>
<wgt id='1457'> +1.3892049e+15 </wgt>
<wgt id='1458'> +1.3912039e+15 </wgt>
<wgt id='1459'> +1.3889475e+15 </wgt>
<wgt id='1460'> +1.3853597e+15 </wgt>
<wgt id='1461'> +1.3948355e+15 </wgt>
<wgt id='1462'> +1.3888067e+15 </wgt>
<wgt id='1463'> +1.3905386e+15 </wgt>
<wgt id='1464'> +1.3853602e+15 </wgt>
<wgt id='1465'> +1.3953865e+15 </wgt>
<wgt id='1466'> +1.3815994e+15 </wgt>
<wgt id='1467'> +1.3947997e+15 </wgt>
<wgt id='1468'> +1.4114701e+15 </wgt>
<wgt id='1469'> +1.3689295e+15 </wgt>
<wgt id='1470'> +1.3874409e+15 </wgt>
<wgt id='1471'> +1.3898219e+15 </wgt>
<wgt id='1472'> +1.3697848e+15 </wgt>
<wgt id='1473'> +1.4144606e+15 </wgt>
<wgt id='1474'> +1.3547830e+15 </wgt>
<wgt id='1475'> +1.4315927e+15 </wgt>
<wgt id='1476'> +1.4022201e+15 </wgt>
<wgt id='1477'> +1.3780560e+15 </wgt>
<wgt id='1478'> +1.3961575e+15 </wgt>
<wgt id='1479'> +1.3738373e+15 </wgt>
<wgt id='1480'> +1.3885547e+15 </wgt>
<wgt id='1481'> +1.3886053e+15 </wgt>
<wgt id='1482'> +1.3824568e+15 </wgt>
<wgt id='1483'> +1.3981820e+15 </wgt>
<wgt id='1484'> +1.3686017e+15 </wgt>
<wgt id='1485'> +1.4139506e+15 </wgt>
<wgt id='1486'> +1.3940381e+15 </wgt>
<wgt id='1487'> +1.3900192e+15 </wgt>
<wgt id='1488'> +1.3857448e+15 </wgt>
<wgt id='1489'> +1.3999134e+15 </wgt>
<wgt id='1490'> +1.3779787e+15 </wgt>
<wgt id='1491'> +1.4155074e+15 </wgt>
<wgt id='1492'> +1.3798382e+15 </wgt>
<wgt id='1493'> +1.3956033e+15 </wgt>
<wgt id='1494'> +1.3840514e+15 </wgt>
<wgt id='1495'> +1.3957143e+15 </wgt>
<wgt id='1496'> +1.3897098e+15 </wgt>
<wgt id='1497'> +1.3893673e+15 </wgt>
<wgt id='1498'> +1.3890647e+15 </wgt>
<wgt id='1499'> +1.3872002e+15 </wgt>
<wgt id='1500'> +1.4004314e+15 </wgt>
<wgt id='1501'> +1.3990135e+15 </wgt>
<wgt id='1502'> +1.3963414e+15 </wgt>
<wgt id='1503'> +1.3938112e+15 </wgt>
<wgt id='1504'> +1.3907308e+15 </wgt>
<wgt id='1505'> +1.3845523e+15 </wgt>
<wgt id='1506'> +1.3808850e+15 </wgt>
<wgt id='1507'> +1.3768177e+15 </wgt>
<wgt id='1508'> +1.3872002e+15 </wgt>
<wgt id='1509'> +1.3913050e+15 </wgt>
<wgt id='1510'> +1.3890289e+15 </wgt>
<wgt id='1511'> +1.3856409e+15 </wgt>
<wgt id='1512'> +1.3857724e+15 </wgt>
<wgt id='1513'> +1.4588475e+15 </wgt>
<wgt id='1514'> +1.4584333e+15 </wgt>
<wgt id='1515'> +1.4593965e+15 </wgt>
<wgt id='1516'> +1.4638955e+15 </wgt>
<wgt id='1517'> +1.4539362e+15 </wgt>
<wgt id='1518'> +1.4628126e+15 </wgt>
<wgt id='1519'> +1.4572708e+15 </wgt>
<wgt id='1520'> +1.4619310e+15 </wgt>
<wgt id='1521'> +1.4558497e+15 </wgt>
<wgt id='1522'> +1.4598812e+15 </wgt>
<wgt id='1523'> +1.4579354e+15 </wgt>
<wgt id='1524'> +1.4595433e+15 </wgt>
<wgt id='1525'> +1.4586092e+15 </wgt>
<wgt id='1526'> +1.4581026e+15 </wgt>
<wgt id='1527'> +1.4597794e+15 </wgt>
<wgt id='1528'> +1.4604808e+15 </wgt>
<wgt id='1529'> +1.4571177e+15 </wgt>
<wgt id='1530'> +1.4528033e+15 </wgt>
<wgt id='1531'> +1.4623025e+15 </wgt>
<wgt id='1532'> +1.4594342e+15 </wgt>
<wgt id='1533'> +1.4580528e+15 </wgt>
<wgt id='1534'> +1.4593177e+15 </wgt>
<wgt id='1535'> +1.4585151e+15 </wgt>
<wgt id='1536'> +1.4623374e+15 </wgt>
<wgt id='1537'> +1.4556225e+15 </wgt>
<wgt id='1538'> +1.4597339e+15 </wgt>
<wgt id='1539'> +1.4562453e+15 </wgt>
<wgt id='1540'> +1.4526658e+15 </wgt>
<wgt id='1541'> +1.4614562e+15 </wgt>
<wgt id='1542'> +1.4808821e+15 </wgt>
<wgt id='1543'> +1.4055080e+15 </wgt>
<wgt id='1544'> +1.4408719e+15 </wgt>
<wgt id='1545'> +1.4977544e+15 </wgt>
<wgt id='1546'> +1.4672660e+15 </wgt>
<wgt id='1547'> +1.4430490e+15 </wgt>
<wgt id='1548'> +1.4306949e+15 </wgt>
<wgt id='1549'> +1.4720103e+15 </wgt>
<wgt id='1550'> +1.4572132e+15 </wgt>
<wgt id='1551'> +1.4612906e+15 </wgt>
<wgt id='1552'> +1.4469073e+15 </wgt>
<wgt id='1553'> +1.4681145e+15 </wgt>
<wgt id='1554'> +1.4848864e+15 </wgt>
<wgt id='1555'> +1.4216348e+15 </wgt>
<wgt id='1556'> +1.4609300e+15 </wgt>
<wgt id='1557'> +1.4477209e+15 </wgt>
<wgt id='1558'> +1.4678713e+15 </wgt>
<wgt id='1559'> +1.4521879e+15 </wgt>
<wgt id='1560'> +1.4578857e+15 </wgt>
<wgt id='1561'> +1.4593020e+15 </wgt>
<wgt id='1562'> +1.4771025e+15 </wgt>
<wgt id='1563'> +1.4453429e+15 </wgt>
<wgt id='1564'> +1.4588475e+15 </wgt>
<wgt id='1565'> +1.4526305e+15 </wgt>
<wgt id='1566'> +1.4818253e+15 </wgt>
<wgt id='1567'> +1.4678624e+15 </wgt>
<wgt id='1568'> +1.4936610e+15 </wgt>
<wgt id='1569'> +1.4887477e+15 </wgt>
<wgt id='1570'> +1.4839099e+15 </wgt>
<wgt id='1571'> +1.4791340e+15 </wgt>
<wgt id='1572'> +1.4732483e+15 </wgt>
<wgt id='1573'> +1.4611292e+15 </wgt>
<wgt id='1574'> +1.4543226e+15 </wgt>
<wgt id='1575'> +1.4482780e+15 </wgt>
<wgt id='1576'> +1.4678624e+15 </wgt>
<wgt id='1577'> +1.4711364e+15 </wgt>
<wgt id='1578'> +1.4692349e+15 </wgt>
<wgt id='1579'> +1.4668811e+15 </wgt>
<wgt id='1580'> +1.4660320e+15 </wgt>
<wgt id='1581'> +1.4306772e+15 </wgt>
<wgt id='1582'> +1.4373264e+15 </wgt>
<wgt id='1583'> +1.4346807e+15 </wgt>
<wgt id='1584'> +1.4183931e+15 </wgt>
<wgt id='1585'> +1.4301937e+15 </wgt>
<wgt id='1586'> +1.4054283e+15 </wgt>
<wgt id='1587'> +1.4467058e+15 </wgt>
<wgt id='1588'> +1.4344292e+15 </wgt>
<wgt id='1589'> +1.4286032e+15 </wgt>
<wgt id='1590'> +1.4503685e+15 </wgt>
<wgt id='1591'> +1.4388642e+15 </wgt>
<wgt id='1592'> +1.3988896e+15 </wgt>
<wgt id='1593'> +1.4347241e+15 </wgt>
<wgt id='1594'> +1.4305873e+15 </wgt>
<wgt id='1595'> +1.4333788e+15 </wgt>
<wgt id='1596'> +1.4499389e+15 </wgt>
<wgt id='1597'> +1.4400090e+15 </wgt>
<wgt id='1598'> +1.4432807e+15 </wgt>
<wgt id='1599'> +1.4110298e+15 </wgt>
<wgt id='1600'> +1.4263212e+15 </wgt>
<wgt id='1601'> +1.4174354e+15 </wgt>
<wgt id='1602'> +1.4260134e+15 </wgt>
<wgt id='1603'> +1.4409740e+15 </wgt>
<wgt id='1604'> +1.4180230e+15 </wgt>
<wgt id='1605'> +1.4215762e+15 </wgt>
<wgt id='1606'> +1.4280062e+15 </wgt>
<wgt id='1607'> +1.4307916e+15 </wgt>
<wgt id='1608'> +1.4202499e+15 </wgt>
<wgt id='1609'> +1.4217590e+15 </wgt>
<wgt id='1610'> +1.4339816e+15 </wgt>
<wgt id='1611'> +1.4026655e+15 </wgt>
<wgt id='1612'> +1.1486841e+15 </wgt>
<wgt id='1613'> +1.1475022e+15 </wgt>
<wgt id='1614'> +1.1480234e+15 </wgt>
<wgt id='1615'> +1.1469635e+15 </wgt>
<wgt id='1616'> +1.1525489e+15 </wgt>
<wgt id='1617'> +1.1490848e+15 </wgt>
<wgt id='1618'> +1.1462987e+15 </wgt>
<wgt id='1619'> +1.1477273e+15 </wgt>
<wgt id='1620'> +1.1441607e+15 </wgt>
<wgt id='1621'> +1.1515929e+15 </wgt>
<wgt id='1622'> +1.1468592e+15 </wgt>
<wgt id='1623'> +1.1429663e+15 </wgt>
<wgt id='1624'> +1.1462936e+15 </wgt>
<wgt id='1625'> +1.1428286e+15 </wgt>
<wgt id='1626'> +1.1475387e+15 </wgt>
<wgt id='1627'> +1.1485244e+15 </wgt>
<wgt id='1628'> +1.1517166e+15 </wgt>
<wgt id='1629'> +1.1485894e+15 </wgt>
<wgt id='1630'> +1.1474631e+15 </wgt>
<wgt id='1631'> +1.1490415e+15 </wgt>
<wgt id='1632'> +1.1498070e+15 </wgt>
<wgt id='1633'> +1.1494353e+15 </wgt>
<wgt id='1634'> +1.1505887e+15 </wgt>
<wgt id='1635'> +1.1523368e+15 </wgt>
<wgt id='1636'> +1.1459236e+15 </wgt>
<wgt id='1637'> +1.1516050e+15 </wgt>
<wgt id='1638'> +1.1539305e+15 </wgt>
<wgt id='1639'> +1.1461156e+15 </wgt>
<wgt id='1640'> +1.1447104e+15 </wgt>
<wgt id='1641'> +1.1568591e+15 </wgt>
<wgt id='1642'> +1.1495124e+15 </wgt>
<wgt id='1643'> +1.1491473e+15 </wgt>
<wgt id='1644'> +1.1481653e+15 </wgt>
<wgt id='1645'> +1.1476468e+15 </wgt>
<wgt id='1646'> +1.1490719e+15 </wgt>
<wgt id='1647'> +1.1511957e+15 </wgt>
<wgt id='1648'> +1.1505359e+15 </wgt>
<wgt id='1649'> +1.1475987e+15 </wgt>
<wgt id='1650'> +1.1480135e+15 </wgt>
<wgt id='1651'> +1.1458018e+15 </wgt>
<wgt id='1652'> +1.1505852e+15 </wgt>
<wgt id='1653'> +1.1514465e+15 </wgt>
<wgt id='1654'> +1.1518433e+15 </wgt>
<wgt id='1655'> +1.1413797e+15 </wgt>
<wgt id='1656'> +1.1472256e+15 </wgt>
<wgt id='1657'> +1.1488517e+15 </wgt>
<wgt id='1658'> +1.1531572e+15 </wgt>
<wgt id='1659'> +1.1513159e+15 </wgt>
<wgt id='1660'> +1.1441065e+15 </wgt>
<wgt id='1661'> +1.1457554e+15 </wgt>
<wgt id='1662'> +1.1500850e+15 </wgt>
<wgt id='1663'> +1.1438962e+15 </wgt>
<wgt id='1664'> +1.1462944e+15 </wgt>
<wgt id='1665'> +1.1479419e+15 </wgt>
<wgt id='1666'> +1.1493359e+15 </wgt>
<wgt id='1667'> +1.1503155e+15 </wgt>
<wgt id='1668'> +1.1472476e+15 </wgt>
<wgt id='1669'> +1.1447064e+15 </wgt>
<wgt id='1670'> +1.1480839e+15 </wgt>
<wgt id='1671'> +1.1490881e+15 </wgt>
<wgt id='1672'> +1.1487479e+15 </wgt>
<wgt id='1673'> +1.1489358e+15 </wgt>
<wgt id='1674'> +1.1473566e+15 </wgt>
<wgt id='1675'> +1.1489709e+15 </wgt>
<wgt id='1676'> +1.1490248e+15 </wgt>
<wgt id='1677'> +1.1472230e+15 </wgt>
<wgt id='1678'> +1.1507210e+15 </wgt>
<wgt id='1679'> +1.1485372e+15 </wgt>
<wgt id='1680'> +1.1487966e+15 </wgt>
<wgt id='1681'> +1.1506627e+15 </wgt>
<wgt id='1682'> +1.1453460e+15 </wgt>
<wgt id='1683'> +1.1477075e+15 </wgt>
<wgt id='1684'> +1.1487070e+15 </wgt>
<wgt id='1685'> +1.1453090e+15 </wgt>
<wgt id='1686'> +1.1472294e+15 </wgt>
<wgt id='1687'> +1.1465209e+15 </wgt>
<wgt id='1688'> +1.1514756e+15 </wgt>
<wgt id='1689'> +1.1436738e+15 </wgt>
<wgt id='1690'> +1.1497373e+15 </wgt>
<wgt id='1691'> +1.1495364e+15 </wgt>
<wgt id='1692'> +1.1505224e+15 </wgt>
<wgt id='1693'> +1.1496123e+15 </wgt>
<wgt id='1694'> +1.1504851e+15 </wgt>
<wgt id='1695'> +1.1489292e+15 </wgt>
<wgt id='1696'> +1.1478620e+15 </wgt>
<wgt id='1697'> +1.1497316e+15 </wgt>
<wgt id='1698'> +1.1492318e+15 </wgt>
<wgt id='1699'> +1.1471204e+15 </wgt>
<wgt id='1700'> +1.1490874e+15 </wgt>
<wgt id='1701'> +1.1475197e+15 </wgt>
<wgt id='1702'> +1.1493891e+15 </wgt>
<wgt id='1703'> +1.1487159e+15 </wgt>
<wgt id='1704'> +1.1479406e+15 </wgt>
<wgt id='1705'> +1.1498147e+15 </wgt>
<wgt id='1706'> +1.1484676e+15 </wgt>
<wgt id='1707'> +1.1498834e+15 </wgt>
<wgt id='1708'> +1.1473733e+15 </wgt>
<wgt id='1709'> +1.1510006e+15 </wgt>
<wgt id='1710'> +1.1477919e+15 </wgt>
<wgt id='1711'> +1.1485732e+15 </wgt>
<wgt id='1712'> +1.1488951e+15 </wgt>
<wgt id='1713'> +1.1540916e+15 </wgt>
<wgt id='1714'> +1.1480815e+15 </wgt>
<wgt id='1715'> +1.3810175e+15 </wgt>
<wgt id='1716'> +1.3855979e+15 </wgt>
<wgt id='1717'> +1.4032104e+15 </wgt>
<wgt id='1718'> +1.4117242e+15 </wgt>
<wgt id='1719'> +1.4236327e+15 </wgt>
<wgt id='1720'> +1.4071465e+15 </wgt>
<wgt id='1721'> +1.4345653e+15 </wgt>
<wgt id='1722'> +1.3984739e+15 </wgt>
<wgt id='1723'> +1.4011019e+15 </wgt>
<wgt id='1724'> +1.3904826e+15 </wgt>
<wgt id='1725'> +1.3893134e+15 </wgt>
<wgt id='1726'> +1.3804506e+15 </wgt>
<wgt id='1727'> +1.3996916e+15 </wgt>
<wgt id='1728'> +1.3704614e+15 </wgt>
<wgt id='1729'> +1.4010549e+15 </wgt>
<wgt id='1730'> +1.3981970e+15 </wgt>
<wgt id='1731'> +1.4208491e+15 </wgt>
<wgt id='1732'> +1.3661639e+15 </wgt>
<wgt id='1733'> +1.3839819e+15 </wgt>
<wgt id='1734'> +1.3912901e+15 </wgt>
<wgt id='1735'> +1.3869585e+15 </wgt>
<wgt id='1736'> +1.3651806e+15 </wgt>
<wgt id='1737'> +1.3619690e+15 </wgt>
<wgt id='1738'> +1.3149235e+15 </wgt>
<wgt id='1739'> +1.4279210e+15 </wgt>
<wgt id='1740'> +1.3449442e+15 </wgt>
<wgt id='1741'> +1.3585610e+15 </wgt>
<wgt id='1742'> +1.3749882e+15 </wgt>
<wgt id='1743'> +1.3558568e+15 </wgt>
<wgt id='1744'> +1.3941924e+15 </wgt>
<wgt id='1745'> +1.4108985e+15 </wgt>
<wgt id='1746'> +1.3772235e+15 </wgt>
<wgt id='1747'> +1.3437339e+15 </wgt>
<wgt id='1748'> +1.4001101e+15 </wgt>
<wgt id='1749'> +1.3514588e+15 </wgt>
<wgt id='1750'> +1.3535558e+15 </wgt>
<wgt id='1751'> +1.3775046e+15 </wgt>
<wgt id='1752'> +1.4241753e+15 </wgt>
<wgt id='1753'> +1.3731094e+15 </wgt>
<wgt id='1754'> +1.3989398e+15 </wgt>
<wgt id='1755'> +1.3710093e+15 </wgt>
<wgt id='1756'> +1.4170170e+15 </wgt>
<wgt id='1757'> +1.4154245e+15 </wgt>
<wgt id='1758'> +1.4386456e+15 </wgt>
<wgt id='1759'> +1.3416969e+15 </wgt>
<wgt id='1760'> +1.4268331e+15 </wgt>
<wgt id='1761'> +1.3992762e+15 </wgt>
<wgt id='1762'> +1.3996916e+15 </wgt>
<wgt id='1763'> +1.4115503e+15 </wgt>
<wgt id='1764'> +1.3693730e+15 </wgt>
<wgt id='1765'> +1.3571384e+15 </wgt>
<wgt id='1766'> +1.3588953e+15 </wgt>
<wgt id='1767'> +1.3402265e+15 </wgt>
<wgt id='1768'> +1.4164452e+15 </wgt>
<wgt id='1769'> +1.3530158e+15 </wgt>
<wgt id='1770'> +1.3414745e+15 </wgt>
<wgt id='1771'> +1.4040044e+15 </wgt>
<wgt id='1772'> +1.3279103e+15 </wgt>
<wgt id='1773'> +1.3724995e+15 </wgt>
<wgt id='1774'> +1.3504317e+15 </wgt>
<wgt id='1775'> +1.3368907e+15 </wgt>
<wgt id='1776'> +1.3914232e+15 </wgt>
<wgt id='1777'> +1.3749565e+15 </wgt>
<wgt id='1778'> +1.3370692e+15 </wgt>
<wgt id='1779'> +1.3656001e+15 </wgt>
<wgt id='1780'> +1.3803224e+15 </wgt>
<wgt id='1781'> +1.3947946e+15 </wgt>
<wgt id='1782'> +1.3280614e+15 </wgt>
<wgt id='1783'> +1.3639722e+15 </wgt>
<wgt id='1784'> +1.3336600e+15 </wgt>
<wgt id='1785'> +1.3936173e+15 </wgt>
<wgt id='1786'> +1.3917636e+15 </wgt>
<wgt id='1787'> +1.3672974e+15 </wgt>
<wgt id='1788'> +1.3876620e+15 </wgt>
<wgt id='1789'> +1.3896380e+15 </wgt>
<wgt id='1790'> +1.3700794e+15 </wgt>
<wgt id='1791'> +1.3717339e+15 </wgt>
<wgt id='1792'> +1.3704085e+15 </wgt>
<wgt id='1793'> +1.3563830e+15 </wgt>
<wgt id='1794'> +1.3738463e+15 </wgt>
<wgt id='1795'> +1.3930969e+15 </wgt>
<wgt id='1796'> +1.3919704e+15 </wgt>
<wgt id='1797'> +1.4170648e+15 </wgt>
<wgt id='1798'> +1.3657202e+15 </wgt>
<wgt id='1799'> +1.3429387e+15 </wgt>
<wgt id='1800'> +1.4170263e+15 </wgt>
<wgt id='1801'> +1.3613429e+15 </wgt>
<wgt id='1802'> +1.3890532e+15 </wgt>
<wgt id='1803'> +1.3858422e+15 </wgt>
<wgt id='1804'> +1.3747803e+15 </wgt>
<wgt id='1805'> +1.3776214e+15 </wgt>
<wgt id='1806'> +1.3654087e+15 </wgt>
<wgt id='1807'> +1.3986434e+15 </wgt>
<wgt id='1808'> +1.3961525e+15 </wgt>
<wgt id='1809'> +1.4003650e+15 </wgt>
<wgt id='1810'> +1.4141220e+15 </wgt>
<wgt id='1811'> +1.3791187e+15 </wgt>
<wgt id='1812'> +1.3349503e+15 </wgt>
<wgt id='1813'> +1.3895683e+15 </wgt>
<wgt id='1814'> +1.3766063e+15 </wgt>
<wgt id='1815'> +1.3838338e+15 </wgt>
<wgt id='1816'> +1.4545418e+15 </wgt>
<wgt id='1817'> +1.4690107e+15 </wgt>
<wgt id='1818'> +1.4955429e+15 </wgt>
<wgt id='1819'> +1.3726080e+15 </wgt>
<wgt id='1820'> +1.4478014e+15 </wgt>
<wgt id='1821'> +1.4524425e+15 </wgt>
<wgt id='1822'> +1.5186721e+15 </wgt>
<wgt id='1823'> +1.4357999e+15 </wgt>
<wgt id='1824'> +1.5034907e+15 </wgt>
<wgt id='1825'> +1.4162494e+15 </wgt>
<wgt id='1826'> +1.3650813e+15 </wgt>
<wgt id='1827'> +1.4534323e+15 </wgt>
<wgt id='1828'> +1.4633189e+15 </wgt>
<wgt id='1829'> +1.5455747e+15 </wgt>
<wgt id='1830'> +1.4561165e+15 </wgt>
<wgt id='1831'> +1.5255060e+15 </wgt>
<wgt id='1832'> +1.4454067e+15 </wgt>
<wgt id='1833'> +1.6249891e+15 </wgt>
<wgt id='1834'> +1.5174810e+15 </wgt>
<wgt id='1835'> +1.4496462e+15 </wgt>
<wgt id='1836'> +1.4313355e+15 </wgt>
<wgt id='1837'> +1.4390851e+15 </wgt>
<wgt id='1838'> +1.3346187e+15 </wgt>
<wgt id='1839'> +1.3890541e+15 </wgt>
<wgt id='1840'> +1.3138942e+15 </wgt>
<wgt id='1841'> +1.4611374e+15 </wgt>
<wgt id='1842'> +1.4508676e+15 </wgt>
<wgt id='1843'> +1.5898132e+15 </wgt>
<wgt id='1844'> +1.5514518e+15 </wgt>
<wgt id='1845'> +1.5156382e+15 </wgt>
<wgt id='1846'> +1.4177198e+15 </wgt>
<wgt id='1847'> +1.4111256e+15 </wgt>
<wgt id='1848'> +1.4092087e+15 </wgt>
<wgt id='1849'> +1.4315934e+15 </wgt>
<wgt id='1850'> +1.3760020e+15 </wgt>
<wgt id='1851'> +1.4310284e+15 </wgt>
<wgt id='1852'> +1.4454500e+15 </wgt>
<wgt id='1853'> +1.5566343e+15 </wgt>
<wgt id='1854'> +1.4344631e+15 </wgt>
<wgt id='1855'> +1.4395878e+15 </wgt>
<wgt id='1856'> +1.4212871e+15 </wgt>
<wgt id='1857'> +1.4105130e+15 </wgt>
<wgt id='1858'> +1.4765775e+15 </wgt>
<wgt id='1859'> +1.3598243e+15 </wgt>
<wgt id='1860'> +1.3915688e+15 </wgt>
<wgt id='1861'> +1.3287304e+15 </wgt>
<wgt id='1862'> +1.3393326e+15 </wgt>
<wgt id='1863'> +1.5214916e+15 </wgt>
<wgt id='1864'> +1.5063816e+15 </wgt>
<wgt id='1865'> +1.4921518e+15 </wgt>
<wgt id='1866'> +1.4557340e+15 </wgt>
<wgt id='1867'> +1.4312501e+15 </wgt>
<wgt id='1868'> +1.4005868e+15 </wgt>
<wgt id='1869'> +1.4115227e+15 </wgt>
<wgt id='1870'> +1.5488361e+15 </wgt>
<wgt id='1871'> +1.4298185e+15 </wgt>
<wgt id='1872'> +1.5419406e+15 </wgt>
<wgt id='1873'> +1.4719972e+15 </wgt>
<wgt id='1874'> +1.4639881e+15 </wgt>
<wgt id='1875'> +1.4690962e+15 </wgt>
<wgt id='1876'> +1.4276550e+15 </wgt>
<wgt id='1877'> +1.4758301e+15 </wgt>
<wgt id='1878'> +1.3953695e+15 </wgt>
<wgt id='1879'> +1.4990661e+15 </wgt>
<wgt id='1880'> +1.5411069e+15 </wgt>
<wgt id='1881'> +1.3471967e+15 </wgt>
<wgt id='1882'> +1.4391509e+15 </wgt>
<wgt id='1883'> +1.4316581e+15 </wgt>
<wgt id='1884'> +1.4220656e+15 </wgt>
<wgt id='1885'> +1.4765906e+15 </wgt>
<wgt id='1886'> +1.5178634e+15 </wgt>
<wgt id='1887'> +1.3430361e+15 </wgt>
<wgt id='1888'> +1.4540971e+15 </wgt>
<wgt id='1889'> +1.4527501e+15 </wgt>
<wgt id='1890'> +1.5155628e+15 </wgt>
<wgt id='1891'> +1.4704495e+15 </wgt>
<wgt id='1892'> +1.3459901e+15 </wgt>
<wgt id='1893'> +1.4021082e+15 </wgt>
<wgt id='1894'> +1.5356738e+15 </wgt>
<wgt id='1895'> +1.4520862e+15 </wgt>
<wgt id='1896'> +1.4598765e+15 </wgt>
<wgt id='1897'> +1.3586317e+15 </wgt>
<wgt id='1898'> +1.4383614e+15 </wgt>
<wgt id='1899'> +1.5492109e+15 </wgt>
<wgt id='1900'> +1.4525560e+15 </wgt>
<wgt id='1901'> +1.4858858e+15 </wgt>
<wgt id='1902'> +1.5075090e+15 </wgt>
<wgt id='1903'> +1.4278498e+15 </wgt>
<wgt id='1904'> +1.4932278e+15 </wgt>
<wgt id='1905'> +1.5167107e+15 </wgt>
<wgt id='1906'> +1.4461389e+15 </wgt>
<wgt id='1907'> +1.4807571e+15 </wgt>
<wgt id='1908'> +1.3973945e+15 </wgt>
<wgt id='1909'> +1.5178729e+15 </wgt>
<wgt id='1910'> +1.4393202e+15 </wgt>
<wgt id='1911'> +1.6090005e+15 </wgt>
<wgt id='1912'> +1.4154848e+15 </wgt>
<wgt id='1913'> +1.4432093e+15 </wgt>
<wgt id='1914'> +1.3367679e+15 </wgt>
<wgt id='1915'> +1.5348073e+15 </wgt>
<wgt id='1916'> +1.5360394e+15 </wgt>
<wgt id='1917'> +1.3894174e+15 </wgt>
<wgt id='1918'> +1.1355955e+15 </wgt>
<wgt id='1919'> +1.4545418e+15 </wgt>
<wgt id='1920'> +1.4690107e+15 </wgt>
<wgt id='1921'> +1.4955429e+15 </wgt>
<wgt id='1922'> +1.3726080e+15 </wgt>
<wgt id='1923'> +1.4478014e+15 </wgt>
<wgt id='1924'> +1.4524425e+15 </wgt>
<wgt id='1925'> +1.5186721e+15 </wgt>
<wgt id='1926'> +1.4357999e+15 </wgt>
<wgt id='1927'> +1.5034907e+15 </wgt>
<wgt id='1928'> +1.4162494e+15 </wgt>
<wgt id='1929'> +1.3650813e+15 </wgt>
<wgt id='1930'> +1.4534323e+15 </wgt>
<wgt id='1931'> +1.4633189e+15 </wgt>
<wgt id='1932'> +1.5455747e+15 </wgt>
<wgt id='1933'> +1.4561165e+15 </wgt>
<wgt id='1934'> +1.5255060e+15 </wgt>
<wgt id='1935'> +1.4454067e+15 </wgt>
<wgt id='1936'> +1.6249891e+15 </wgt>
<wgt id='1937'> +1.5174810e+15 </wgt>
<wgt id='1938'> +1.4496462e+15 </wgt>
<wgt id='1939'> +1.4313355e+15 </wgt>
<wgt id='1940'> +1.4390851e+15 </wgt>
<wgt id='1941'> +1.3346187e+15 </wgt>
<wgt id='1942'> +1.3890541e+15 </wgt>
<wgt id='1943'> +1.3138942e+15 </wgt>
<wgt id='1944'> +1.4611374e+15 </wgt>
<wgt id='1945'> +1.4508676e+15 </wgt>
<wgt id='1946'> +1.5898132e+15 </wgt>
<wgt id='1947'> +1.5514518e+15 </wgt>
<wgt id='1948'> +1.5156382e+15 </wgt>
<wgt id='1949'> +1.4177198e+15 </wgt>
<wgt id='1950'> +1.4111256e+15 </wgt>
<wgt id='1951'> +1.4092087e+15 </wgt>
<wgt id='1952'> +1.4315934e+15 </wgt>
<wgt id='1953'> +1.3760020e+15 </wgt>
<wgt id='1954'> +1.4310284e+15 </wgt>
<wgt id='1955'> +1.4454500e+15 </wgt>
<wgt id='1956'> +1.5566343e+15 </wgt>
<wgt id='1957'> +1.4344631e+15 </wgt>
<wgt id='1958'> +1.4395878e+15 </wgt>
<wgt id='1959'> +1.4212871e+15 </wgt>
<wgt id='1960'> +1.4105130e+15 </wgt>
<wgt id='1961'> +1.4765775e+15 </wgt>
<wgt id='1962'> +1.3598243e+15 </wgt>
<wgt id='1963'> +1.3915688e+15 </wgt>
<wgt id='1964'> +1.3287304e+15 </wgt>
<wgt id='1965'> +1.3393326e+15 </wgt>
<wgt id='1966'> +1.5214916e+15 </wgt>
<wgt id='1967'> +1.5063816e+15 </wgt>
<wgt id='1968'> +1.4921518e+15 </wgt>
<wgt id='1969'> +1.4557340e+15 </wgt>
<wgt id='1970'> +1.4312501e+15 </wgt>
<wgt id='1971'> +1.4005868e+15 </wgt>
<wgt id='1972'> +1.4115227e+15 </wgt>
<wgt id='1973'> +1.5488361e+15 </wgt>
<wgt id='1974'> +1.4298185e+15 </wgt>
<wgt id='1975'> +1.5419406e+15 </wgt>
<wgt id='1976'> +1.4719972e+15 </wgt>
<wgt id='1977'> +1.4639881e+15 </wgt>
<wgt id='1978'> +1.4690962e+15 </wgt>
<wgt id='1979'> +1.4276550e+15 </wgt>
<wgt id='1980'> +1.4758301e+15 </wgt>
<wgt id='1981'> +1.3953695e+15 </wgt>
<wgt id='1982'> +1.4990661e+15 </wgt>
<wgt id='1983'> +1.5411069e+15 </wgt>
<wgt id='1984'> +1.3471967e+15 </wgt>
<wgt id='1985'> +1.4391509e+15 </wgt>
<wgt id='1986'> +1.4316581e+15 </wgt>
<wgt id='1987'> +1.4220656e+15 </wgt>
<wgt id='1988'> +1.4765906e+15 </wgt>
<wgt id='1989'> +1.5178634e+15 </wgt>
<wgt id='1990'> +1.3430361e+15 </wgt>
<wgt id='1991'> +1.4540971e+15 </wgt>
<wgt id='1992'> +1.4527501e+15 </wgt>
<wgt id='1993'> +1.5155628e+15 </wgt>
<wgt id='1994'> +1.4704495e+15 </wgt>
<wgt id='1995'> +1.3459901e+15 </wgt>
<wgt id='1996'> +1.4021082e+15 </wgt>
<wgt id='1997'> +1.5356738e+15 </wgt>
<wgt id='1998'> +1.4520862e+15 </wgt>
<wgt id='1999'> +1.4598765e+15 </wgt>
<wgt id='2000'> +1.3586317e+15 </wgt>
<wgt id='2001'> +1.4383614e+15 </wgt>
<wgt id='2002'> +1.5492109e+15 </wgt>
<wgt id='2003'> +1.4525560e+15 </wgt>
<wgt id='2004'> +1.4858858e+15 </wgt>
<wgt id='2005'> +1.5075090e+15 </wgt>
<wgt id='2006'> +1.4278498e+15 </wgt>
<wgt id='2007'> +1.4932278e+15 </wgt>
<wgt id='2008'> +1.5167107e+15 </wgt>
<wgt id='2009'> +1.4461389e+15 </wgt>
<wgt id='2010'> +1.4807571e+15 </wgt>
<wgt id='2011'> +1.3973945e+15 </wgt>
<wgt id='2012'> +1.5178729e+15 </wgt>
<wgt id='2013'> +1.4393202e+15 </wgt>
<wgt id='2014'> +1.6090005e+15 </wgt>
<wgt id='2015'> +1.4154848e+15 </wgt>
<wgt id='2016'> +1.4432093e+15 </wgt>
<wgt id='2017'> +1.3367679e+15 </wgt>
<wgt id='2018'> +1.5348073e+15 </wgt>
<wgt id='2019'> +1.5360394e+15 </wgt>
<wgt id='2020'> +1.4541768e+15 </wgt>
<wgt id='2021'> +1.4585918e+15 </wgt>
<wgt id='2022'> +1.4191490e+15 </wgt>
</rwgt>
</event>
</LesHouchesEvents>
